<?xml version="1.0" encoding="UTF-8"?>

<!-- generated on 2024-04-14 23:04:23 by Eclipse SUMO sumo Version 1.19.0
<configuration xmlns:xsi="http://www.w3.org/2001/XMLSchema-instance" xsi:noNamespaceSchemaLocation="http://sumo.dlr.de/xsd/sumoConfiguration.xsd">

    <input>
        <net-file value="/home/vatsal/RESCO-main/resco_benchmark/environments/ingolstadt21/ingolstadt21.net.xml"/>
        <route-files value="/home/vatsal/RESCO-main/resco_benchmark/environments/ingolstadt21/ingolstadt21.rou.xml"/>
    </input>

    <output>
        <tripinfo-output value="/home/vatsal/RESCO-main/results/IDQN-tr0-ingolstadt21-21-drq_norm-wait_norm/tripinfo_10.xml"/>
        <tripinfo-output.write-unfinished value="true"/>
    </output>

    <time>
        <begin value="57600"/>
        <end value="61200"/>
    </time>

    <processing>
        <time-to-teleport value="-1"/>
    </processing>

    <report>
        <no-warnings value="True"/>
        <no-step-log value="True"/>
    </report>

    <traci_server>
        <remote-port value="56925"/>
    </traci_server>

    <random_number>
        <random value="true"/>
    </random_number>

</configuration>
-->

<tripinfos xmlns:xsi="http://www.w3.org/2001/XMLSchema-instance" xsi:noNamespaceSchemaLocation="http://sumo.dlr.de/xsd/tripinfo_file.xsd">
    <tripinfo id="h15454c2:3" depart="57612.00" departLane="24608844_1" departPos="5.10" departSpeed="0.00" departDelay="0.50" arrival="57651.00" arrivalLane="32978638#0_1" arrivalPos="49.29" arrivalSpeed="13.69" duration="39.00" routeLength="354.79" waitingTime="0.00" waitingCount="0" stopTime="0.00" timeLoss="5.44" rerouteNo="1" devices="tripinfo_h15454c2:3 routing_h15454c2:3" vType="default_016" speedFactor="1.03" vaporized=""/>
    <tripinfo id="carIn53971:1" depart="57640.00" departLane="272042143_1" departPos="5.10" departSpeed="0.00" departDelay="0.80" arrival="57692.00" arrivalLane="24634414#1_1" arrivalPos="162.19" arrivalSpeed="7.73" duration="52.00" routeLength="493.04" waitingTime="0.00" waitingCount="0" stopTime="0.00" timeLoss="7.53" rerouteNo="1" devices="tripinfo_carIn53971:1 routing_carIn53971:1" vType="default_016" speedFactor="1.03" vaporized=""/>
    <tripinfo id="h3688c1:1" depart="57625.00" departLane="201201950#1_1" departPos="5.10" departSpeed="0.00" departDelay="0.00" arrival="57720.00" arrivalLane="32978638#0_1" arrivalPos="49.29" arrivalSpeed="14.09" duration="95.00" routeLength="1089.75" waitingTime="5.00" waitingCount="1" stopTime="0.00" timeLoss="19.87" rerouteNo="1" devices="tripinfo_h3688c1:1 routing_h3688c1:1" vType="default_016" speedFactor="1.06" vaporized=""/>
    <tripinfo id="h7800c1:5" depart="57696.00" departLane="-447569998#1_1" departPos="5.10" departSpeed="0.00" departDelay="0.00" arrival="57722.00" arrivalLane="-447569998#1_1" arrivalPos="180.76" arrivalSpeed="7.96" duration="26.00" routeLength="175.66" waitingTime="0.00" waitingCount="0" stopTime="0.00" timeLoss="3.51" rerouteNo="1" devices="tripinfo_h7800c1:5 routing_h7800c1:5" vType="default_016" speedFactor="0.97" vaporized=""/>
    <tripinfo id="carIn60260:1" depart="57606.00" departLane="315358254#0_1" departPos="5.10" departSpeed="0.00" departDelay="0.90" arrival="57724.00" arrivalLane="399835085#1_1" arrivalPos="212.23" arrivalSpeed="7.14" duration="118.00" routeLength="430.98" waitingTime="61.00" waitingCount="1" stopTime="0.00" timeLoss="71.62" rerouteNo="1" devices="tripinfo_carIn60260:1 routing_carIn60260:1" vType="default_016" speedFactor="1.00" vaporized=""/>
    <tripinfo id="h12244c1:3" depart="57612.00" departLane="315358244_1" departPos="5.10" departSpeed="0.00" departDelay="0.40" arrival="57727.00" arrivalLane="386687235_1" arrivalPos="80.84" arrivalSpeed="13.09" duration="115.00" routeLength="1186.14" waitingTime="8.00" waitingCount="1" stopTime="0.00" timeLoss="23.37" rerouteNo="1" devices="tripinfo_h12244c1:3 routing_h12244c1:3" vType="default_016" speedFactor="0.95" vaporized=""/>
    <tripinfo id="S5R_frequency1.2" depart="57624.00" departLane="315358250#0_1" departPos="12.10" departSpeed="0.00" departDelay="12.40" arrival="57734.00" arrivalLane="386687235_1" arrivalPos="80.84" arrivalSpeed="13.33" duration="110.00" routeLength="1115.62" waitingTime="7.00" waitingCount="1" stopTime="0.00" timeLoss="28.31" rerouteNo="1" devices="tripinfo_S5R_frequency1.2 routing_S5R_frequency1.2" vType="bus" speedFactor="1.00" vaporized=""/>
    <tripinfo id="h7181c1:1" depart="57660.00" departLane="315358254#0_1" departPos="5.10" departSpeed="0.00" departDelay="0.10" arrival="57735.00" arrivalLane="306240162#0_0" arrivalPos="220.43" arrivalSpeed="15.87" duration="75.00" routeLength="932.35" waitingTime="9.00" waitingCount="1" stopTime="0.00" timeLoss="23.74" rerouteNo="1" devices="tripinfo_h7181c1:1 routing_h7181c1:1" vType="default_016" speedFactor="1.00" vaporized=""/>
    <tripinfo id="h317c2:1" depart="57707.00" departLane="-32978638#0_1" departPos="5.10" departSpeed="0.00" departDelay="0.10" arrival="57739.00" arrivalLane="-266565295#5_1" arrivalPos="172.76" arrivalSpeed="13.75" duration="32.00" routeLength="370.53" waitingTime="0.00" waitingCount="0" stopTime="0.00" timeLoss="5.15" rerouteNo="1" devices="tripinfo_h317c2:1 routing_h317c2:1" vType="default_016" speedFactor="1.03" vaporized=""/>
    <tripinfo id="h3568c1:3" depart="57656.00" departLane="266565295#5_1" departPos="5.10" departSpeed="0.00" departDelay="0.80" arrival="57746.00" arrivalLane="-24634415_1" arrivalPos="62.03" arrivalSpeed="12.78" duration="90.00" routeLength="807.40" waitingTime="1.00" waitingCount="1" stopTime="0.00" timeLoss="26.29" rerouteNo="1" devices="tripinfo_h3568c1:3 routing_h3568c1:3" vType="default_016" speedFactor="1.01" vaporized=""/>
    <tripinfo id="h4538c1:1" depart="57701.00" departLane="-10427692#1_1" departPos="5.10" departSpeed="0.00" departDelay="0.00" arrival="57751.00" arrivalLane="-128361102#1_1" arrivalPos="274.68" arrivalSpeed="10.02" duration="50.00" routeLength="440.74" waitingTime="0.00" waitingCount="0" stopTime="0.00" timeLoss="8.71" rerouteNo="1" devices="tripinfo_h4538c1:1 routing_h4538c1:1" vType="default_016" speedFactor="0.78" vaporized=""/>
    <tripinfo id="carIn121703:1" depart="57647.00" departLane="386687232#0_1" departPos="5.10" departSpeed="0.00" departDelay="0.30" arrival="57753.00" arrivalLane="-315358244_1" arrivalPos="33.95" arrivalSpeed="14.34" duration="106.00" routeLength="1157.39" waitingTime="14.00" waitingCount="1" stopTime="0.00" timeLoss="26.47" rerouteNo="1" devices="tripinfo_carIn121703:1 routing_carIn121703:1" vType="default_016" speedFactor="1.07" vaporized=""/>
    <tripinfo id="h5979c1:5" depart="57669.00" departLane="399835085#1_1" departPos="5.10" departSpeed="0.00" departDelay="0.00" arrival="57753.00" arrivalLane="-315358254#1_1" arrivalPos="137.16" arrivalSpeed="13.53" duration="84.00" routeLength="659.33" waitingTime="0.00" waitingCount="0" stopTime="0.00" timeLoss="12.78" rerouteNo="1" devices="tripinfo_h5979c1:5 routing_h5979c1:5" vType="default_016" speedFactor="1.03" vaporized=""/>
    <tripinfo id="carIn30817:1" depart="57681.00" departLane="315358244_1" departPos="5.10" departSpeed="0.00" departDelay="0.20" arrival="57754.00" arrivalLane="447569997#1_1" arrivalPos="180.93" arrivalSpeed="9.75" duration="73.00" routeLength="718.04" waitingTime="10.00" waitingCount="1" stopTime="0.00" timeLoss="23.55" rerouteNo="1" devices="tripinfo_carIn30817:1 routing_carIn30817:1" vType="default_016" speedFactor="1.26" vaporized=""/>
    <tripinfo id="h3326c1:2" depart="57656.00" departLane="22716069#0_1" departPos="5.10" departSpeed="0.00" departDelay="0.00" arrival="57766.00" arrivalLane="24634517#13_1" arrivalPos="111.62" arrivalSpeed="13.43" duration="110.00" routeLength="1312.81" waitingTime="0.00" waitingCount="0" stopTime="0.00" timeLoss="13.88" rerouteNo="1" devices="tripinfo_h3326c1:2 routing_h3326c1:2" vType="default_016" speedFactor="1.02" vaporized=""/>
    <tripinfo id="h9563c2:5" depart="57631.00" departLane="315358244_1" departPos="5.10" departSpeed="0.00" departDelay="0.70" arrival="57768.00" arrivalLane="386687235_1" arrivalPos="80.84" arrivalSpeed="12.37" duration="137.00" routeLength="1186.14" waitingTime="24.00" waitingCount="3" stopTime="0.00" timeLoss="46.47" rerouteNo="1" devices="tripinfo_h9563c2:5 routing_h9563c2:5" vType="default_016" speedFactor="0.96" vaporized=""/>
    <tripinfo id="carIn22761:1" depart="57616.00" departLane="-306240162#1_0" departPos="5.10" departSpeed="0.00" departDelay="2.10" arrival="57770.00" arrivalLane="399835085#1_1" arrivalPos="212.23" arrivalSpeed="8.89" duration="154.00" routeLength="1093.26" waitingTime="60.00" waitingCount="2" stopTime="0.00" timeLoss="83.35" rerouteNo="1" devices="tripinfo_carIn22761:1 routing_carIn22761:1" vType="default_016" speedFactor="1.11" vaporized=""/>
    <tripinfo id="carIn80064:1" depart="57603.00" departLane="128361109#1_1" departPos="5.10" departSpeed="0.00" departDelay="0.40" arrival="57781.00" arrivalLane="-315358254#1_1" arrivalPos="137.16" arrivalSpeed="12.90" duration="178.00" routeLength="1587.97" waitingTime="52.00" waitingCount="2" stopTime="0.00" timeLoss="86.72" rerouteNo="1" devices="tripinfo_carIn80064:1 routing_carIn80064:1" vType="default_016" speedFactor="0.98" vaporized=""/>
    <tripinfo id="carIn27009:1" depart="57673.00" departLane="-447569998#1_1" departPos="5.10" departSpeed="0.00" departDelay="0.50" arrival="57786.00" arrivalLane="-26677539_1" arrivalPos="152.75" arrivalSpeed="7.09" duration="113.00" routeLength="699.63" waitingTime="13.00" waitingCount="1" stopTime="0.00" timeLoss="26.52" rerouteNo="1" devices="tripinfo_carIn27009:1 routing_carIn27009:1" vType="default_015" speedFactor="0.97" vaporized=""/>
    <tripinfo id="h330c1:1" depart="57736.00" departLane="-32978638#0_1" departPos="5.10" departSpeed="0.00" departDelay="0.20" arrival="57792.00" arrivalLane="-266565295#5_1" arrivalPos="172.76" arrivalSpeed="12.04" duration="56.00" routeLength="370.53" waitingTime="18.00" waitingCount="1" stopTime="0.00" timeLoss="26.23" rerouteNo="1" devices="tripinfo_h330c1:1 routing_h330c1:1" vType="default_016" speedFactor="0.92" vaporized=""/>
    <tripinfo id="h5216c1:1" depart="57664.00" departLane="224892339#0_1" departPos="5.10" departSpeed="0.00" departDelay="0.00" arrival="57797.00" arrivalLane="386687235_2" arrivalPos="80.84" arrivalSpeed="15.12" duration="133.00" routeLength="1823.78" waitingTime="0.00" waitingCount="0" stopTime="0.00" timeLoss="17.72" rerouteNo="1" devices="tripinfo_h5216c1:1 routing_h5216c1:1" vType="default_016" speedFactor="1.11" vaporized=""/>
    <tripinfo id="h16072c2:3" depart="57663.00" departLane="315358254#0_1" departPos="5.10" departSpeed="0.00" departDelay="2.50" arrival="57798.00" arrivalLane="386687235_1" arrivalPos="80.84" arrivalSpeed="12.65" duration="135.00" routeLength="1611.92" waitingTime="3.00" waitingCount="1" stopTime="0.00" timeLoss="18.21" rerouteNo="1" devices="tripinfo_h16072c2:3 routing_h16072c2:3" vType="default_016" speedFactor="1.00" vaporized=""/>
    <tripinfo id="carIn107282:1" depart="57749.00" departLane="-447569998#1_1" departPos="5.10" departSpeed="0.00" departDelay="0.00" arrival="57800.00" arrivalLane="315358242#0_1" arrivalPos="165.37" arrivalSpeed="14.34" duration="51.00" routeLength="448.50" waitingTime="3.00" waitingCount="1" stopTime="0.00" timeLoss="12.54" rerouteNo="1" devices="tripinfo_carIn107282:1 routing_carIn107282:1" vType="default_016" speedFactor="1.09" vaporized=""/>
    <tripinfo id="h3154c1:1" depart="57658.00" departLane="24634507_1" departPos="5.10" departSpeed="0.00" departDelay="0.00" arrival="57810.00" arrivalLane="-266565295#5_1" arrivalPos="172.76" arrivalSpeed="10.99" duration="152.00" routeLength="1206.22" waitingTime="26.00" waitingCount="2" stopTime="0.00" timeLoss="47.69" rerouteNo="1" devices="tripinfo_h3154c1:1 routing_h3154c1:1" vType="default_016" speedFactor="0.86" vaporized=""/>
    <tripinfo id="carIn129809:1" depart="57729.00" departLane="-447569998#1_1" departPos="5.10" departSpeed="0.00" departDelay="1.00" arrival="57816.00" arrivalLane="-315358244_1" arrivalPos="33.95" arrivalSpeed="11.72" duration="87.00" routeLength="706.49" waitingTime="5.00" waitingCount="2" stopTime="0.00" timeLoss="18.88" rerouteNo="1" devices="tripinfo_carIn129809:1 routing_carIn129809:1" vType="default_015" speedFactor="0.88" vaporized=""/>
    <tripinfo id="carIn12152:1" depart="57647.00" departLane="24599188#0.94_1" departPos="5.10" departSpeed="0.00" departDelay="0.50" arrival="57821.00" arrivalLane="-315358254#1_1" arrivalPos="137.16" arrivalSpeed="13.09" duration="174.00" routeLength="2034.31" waitingTime="0.00" waitingCount="0" stopTime="0.00" timeLoss="18.77" rerouteNo="1" devices="tripinfo_carIn12152:1 routing_carIn12152:1" vType="default_016" speedFactor="1.02" vaporized=""/>
    <tripinfo id="carIn28951:1" depart="57606.00" departLane="10425609#0_1" departPos="5.10" departSpeed="0.00" departDelay="0.20" arrival="57823.00" arrivalLane="-128361102#1_1" arrivalPos="274.68" arrivalSpeed="12.52" duration="217.00" routeLength="2113.04" waitingTime="22.00" waitingCount="2" stopTime="0.00" timeLoss="47.67" rerouteNo="1" devices="tripinfo_carIn28951:1 routing_carIn28951:1" vType="default_016" speedFactor="0.92" vaporized=""/>
    <tripinfo id="carIn107084:1" depart="57601.00" departLane="124812856#0_1" departPos="5.10" departSpeed="0.00" departDelay="0.70" arrival="57824.00" arrivalLane="-128361102#1_1" arrivalPos="274.68" arrivalSpeed="12.64" duration="223.00" routeLength="2250.49" waitingTime="25.00" waitingCount="2" stopTime="0.00" timeLoss="54.77" rerouteNo="1" devices="tripinfo_carIn107084:1 routing_carIn107084:1" vType="default_016" speedFactor="0.97" vaporized=""/>
    <tripinfo id="carIn12858:1" depart="57661.00" departLane="128361109#1_1" departPos="5.10" departSpeed="0.00" departDelay="0.90" arrival="57824.00" arrivalLane="399835085#1_1" arrivalPos="212.23" arrivalSpeed="7.12" duration="163.00" routeLength="1738.12" waitingTime="2.00" waitingCount="1" stopTime="0.00" timeLoss="29.71" rerouteNo="1" devices="tripinfo_carIn12858:1 routing_carIn12858:1" vType="default_016" speedFactor="0.87" vaporized=""/>
    <tripinfo id="carIn77943:1" depart="57608.00" departLane="124812856#0_1" departPos="5.10" departSpeed="0.00" departDelay="2.50" arrival="57828.00" arrivalLane="-128361102#1_1" arrivalPos="274.68" arrivalSpeed="13.21" duration="220.00" routeLength="2250.49" waitingTime="19.00" waitingCount="1" stopTime="0.00" timeLoss="48.37" rerouteNo="1" devices="tripinfo_carIn77943:1 routing_carIn77943:1" vType="default_016" speedFactor="0.96" vaporized=""/>
    <tripinfo id="carIn86816:1" depart="57617.00" departLane="128361102#0_1" departPos="5.10" departSpeed="0.00" departDelay="0.80" arrival="57829.00" arrivalLane="201956811#0_1" arrivalPos="40.40" arrivalSpeed="12.91" duration="212.00" routeLength="2067.33" waitingTime="33.00" waitingCount="2" stopTime="0.00" timeLoss="58.23" rerouteNo="1" devices="tripinfo_carIn86816:1 routing_carIn86816:1" vType="default_016" speedFactor="0.98" vaporized=""/>
    <tripinfo id="h20540c1:1" depart="57634.00" departLane="10425609#0_1" departPos="5.10" departSpeed="0.00" departDelay="0.50" arrival="57830.00" arrivalLane="-128361102#1_1" arrivalPos="274.68" arrivalSpeed="14.21" duration="196.00" routeLength="2113.04" waitingTime="16.00" waitingCount="1" stopTime="0.00" timeLoss="55.68" rerouteNo="1" devices="tripinfo_h20540c1:1 routing_h20540c1:1" vType="default_016" speedFactor="1.10" vaporized=""/>
    <tripinfo id="h3864c1:3" depart="57678.00" departLane="24693977#1_1" departPos="5.10" departSpeed="0.00" departDelay="0.00" arrival="57831.00" arrivalLane="201956820_2" arrivalPos="48.33" arrivalSpeed="13.69" duration="153.00" routeLength="1574.85" waitingTime="7.00" waitingCount="1" stopTime="0.00" timeLoss="31.70" rerouteNo="1" devices="tripinfo_h3864c1:3 routing_h3864c1:3" vType="default_016" speedFactor="1.06" vaporized=""/>
    <tripinfo id="h645c1:1" depart="57622.00" departLane="266565295#5_1" departPos="5.10" departSpeed="0.00" departDelay="0.40" arrival="57832.00" arrivalLane="-315358244_1" arrivalPos="33.95" arrivalSpeed="11.59" duration="210.00" routeLength="1910.83" waitingTime="34.00" waitingCount="2" stopTime="0.00" timeLoss="57.88" rerouteNo="1" devices="tripinfo_h645c1:1 routing_h645c1:1" vType="default_016" speedFactor="0.91" vaporized=""/>
    <tripinfo id="carIn118591:1" depart="57689.00" departLane="315358244_1" departPos="5.10" departSpeed="0.00" departDelay="0.20" arrival="57832.00" arrivalLane="386687235_1" arrivalPos="80.84" arrivalSpeed="10.43" duration="143.00" routeLength="1186.14" waitingTime="5.00" waitingCount="2" stopTime="0.00" timeLoss="29.69" rerouteNo="1" devices="tripinfo_carIn118591:1 routing_carIn118591:1" vType="default_016" speedFactor="0.76" vaporized=""/>
    <tripinfo id="h9953c2:3" depart="57682.00" departLane="-54169231#2_1" departPos="5.10" departSpeed="0.00" departDelay="0.00" arrival="57834.00" arrivalLane="386687235_2" arrivalPos="80.84" arrivalSpeed="14.37" duration="152.00" routeLength="1535.60" waitingTime="5.00" waitingCount="2" stopTime="0.00" timeLoss="33.03" rerouteNo="1" devices="tripinfo_h9953c2:3 routing_h9953c2:3" vType="default_016" speedFactor="1.06" vaporized=""/>
    <tripinfo id="carIn102915:1" depart="57643.00" departLane="128361102#0_1" departPos="5.10" departSpeed="0.00" departDelay="0.40" arrival="57837.00" arrivalLane="201956811#0_1" arrivalPos="40.40" arrivalSpeed="14.00" duration="194.00" routeLength="2067.33" waitingTime="31.00" waitingCount="2" stopTime="0.00" timeLoss="70.28" rerouteNo="1" devices="tripinfo_carIn102915:1 routing_carIn102915:1" vType="default_016" speedFactor="1.22" vaporized=""/>
    <tripinfo id="carIn50326:1" depart="57651.00" departLane="128361102#0_1" departPos="5.10" departSpeed="0.00" departDelay="0.30" arrival="57838.00" arrivalLane="18809673#0_1" arrivalPos="473.56" arrivalSpeed="11.78" duration="187.00" routeLength="1591.07" waitingTime="13.00" waitingCount="2" stopTime="0.00" timeLoss="38.03" rerouteNo="1" devices="tripinfo_carIn50326:1 routing_carIn50326:1" vType="default_016" speedFactor="0.87" vaporized=""/>
    <tripinfo id="randUni33724:1" depart="57646.00" departLane="128361102#0_1" departPos="5.10" departSpeed="0.00" departDelay="1.20" arrival="57841.00" arrivalLane="201956811#0_1" arrivalPos="40.40" arrivalSpeed="12.61" duration="195.00" routeLength="2067.33" waitingTime="14.00" waitingCount="2" stopTime="0.00" timeLoss="44.03" rerouteNo="1" devices="tripinfo_randUni33724:1 routing_randUni33724:1" vType="random_016" speedFactor="1.00" vaporized=""/>
    <tripinfo id="carIn12775:1" depart="57676.00" departLane="10425609#0_1" departPos="5.10" departSpeed="0.00" departDelay="0.60" arrival="57841.00" arrivalLane="18809673#0_1" arrivalPos="473.56" arrivalSpeed="13.11" duration="165.00" routeLength="1959.45" waitingTime="7.00" waitingCount="1" stopTime="0.00" timeLoss="23.83" rerouteNo="1" devices="tripinfo_carIn12775:1 routing_carIn12775:1" vType="default_016" speedFactor="1.03" vaporized=""/>
    <tripinfo id="h17549c1:1" depart="57680.00" departLane="-447569998#1_1" departPos="5.10" departSpeed="0.00" departDelay="0.00" arrival="57842.00" arrivalLane="-315358254#1_1" arrivalPos="137.16" arrivalSpeed="13.47" duration="162.00" routeLength="1746.60" waitingTime="6.00" waitingCount="1" stopTime="0.00" timeLoss="22.77" rerouteNo="1" devices="tripinfo_h17549c1:1 routing_h17549c1:1" vType="default_016" speedFactor="0.99" vaporized=""/>
    <tripinfo id="carIn8642:1" depart="57774.00" departLane="-447569998#1_1" departPos="5.10" departSpeed="0.00" departDelay="0.90" arrival="57843.00" arrivalLane="-315358244_1" arrivalPos="33.95" arrivalSpeed="15.30" duration="69.00" routeLength="706.49" waitingTime="3.00" waitingCount="2" stopTime="0.00" timeLoss="17.15" rerouteNo="1" devices="tripinfo_carIn8642:1 routing_carIn8642:1" vType="default_016" speedFactor="1.18" vaporized=""/>
    <tripinfo id="randUni31145:1" depart="57814.00" departLane="10425609#0_1" departPos="5.10" departSpeed="0.00" departDelay="0.30" arrival="57844.00" arrivalLane="201956810_1" arrivalPos="71.65" arrivalSpeed="12.71" duration="30.00" routeLength="255.78" waitingTime="0.00" waitingCount="0" stopTime="0.00" timeLoss="10.18" rerouteNo="1" devices="tripinfo_randUni31145:1 routing_randUni31145:1" vType="random_016" speedFactor="0.98" vaporized=""/>
    <tripinfo id="randUni2407:1" depart="57820.00" departLane="10425609#0_1" departPos="5.10" departSpeed="0.00" departDelay="0.80" arrival="57847.00" arrivalLane="201956810_1" arrivalPos="71.65" arrivalSpeed="14.61" duration="27.00" routeLength="255.78" waitingTime="0.00" waitingCount="0" stopTime="0.00" timeLoss="7.77" rerouteNo="1" devices="tripinfo_randUni2407:1 routing_randUni2407:1" vType="random_016" speedFactor="1.05" vaporized=""/>
    <tripinfo id="randUni15030:1" depart="57735.00" departLane="386687232#0_1" departPos="5.10" departSpeed="0.00" departDelay="0.10" arrival="57848.00" arrivalLane="26677539_1" arrivalPos="151.98" arrivalSpeed="5.97" duration="113.00" routeLength="919.89" waitingTime="0.00" waitingCount="0" stopTime="0.00" timeLoss="11.99" rerouteNo="1" devices="tripinfo_randUni15030:1 routing_randUni15030:1" vType="random_016" speedFactor="0.83" vaporized=""/>
    <tripinfo id="carIn81860:1" depart="57712.00" departLane="128361102#0_1" departPos="5.10" departSpeed="0.00" departDelay="0.60" arrival="57850.00" arrivalLane="-24634517#17_1" arrivalPos="6.43" arrivalSpeed="8.09" duration="138.00" routeLength="1229.64" waitingTime="22.00" waitingCount="1" stopTime="0.00" timeLoss="44.50" rerouteNo="1" devices="tripinfo_carIn81860:1 routing_carIn81860:1" vType="default_016" speedFactor="0.96" vaporized=""/>
    <tripinfo id="carIn12365:1" depart="57713.00" departLane="315358244_1" departPos="5.10" departSpeed="0.00" departDelay="0.50" arrival="57853.00" arrivalLane="447569997#1_1" arrivalPos="180.93" arrivalSpeed="8.27" duration="140.00" routeLength="718.04" waitingTime="60.00" waitingCount="3" stopTime="0.00" timeLoss="80.20" rerouteNo="1" devices="tripinfo_carIn12365:1 routing_carIn12365:1" vType="default_016" speedFactor="1.04" vaporized=""/>
    <tripinfo id="carIn100288:1" depart="57664.00" departLane="128361102#0_1" departPos="5.10" departSpeed="0.00" departDelay="0.60" arrival="57855.00" arrivalLane="201956811#0_1" arrivalPos="40.40" arrivalSpeed="13.01" duration="191.00" routeLength="2067.33" waitingTime="18.00" waitingCount="1" stopTime="0.00" timeLoss="41.95" rerouteNo="1" devices="tripinfo_carIn100288:1 routing_carIn100288:1" vType="default_016" speedFactor="1.02" vaporized=""/>
    <tripinfo id="h5938c1:1" depart="57740.00" departLane="-26677542#0_1" departPos="5.10" departSpeed="0.00" departDelay="0.00" arrival="57855.00" arrivalLane="447569997#1_1" arrivalPos="180.93" arrivalSpeed="7.95" duration="115.00" routeLength="1093.64" waitingTime="4.00" waitingCount="1" stopTime="0.00" timeLoss="23.17" rerouteNo="1" devices="tripinfo_h5938c1:1 routing_h5938c1:1" vType="default_016" speedFactor="1.06" vaporized=""/>
    <tripinfo id="carIn29531:1" depart="57667.00" departLane="128361102#0_1" departPos="5.10" departSpeed="0.00" departDelay="1.60" arrival="57858.00" arrivalLane="201956811#0_1" arrivalPos="40.40" arrivalSpeed="13.31" duration="191.00" routeLength="2067.33" waitingTime="15.00" waitingCount="1" stopTime="0.00" timeLoss="39.14" rerouteNo="1" devices="tripinfo_carIn29531:1 routing_carIn29531:1" vType="default_016" speedFactor="1.00" vaporized=""/>
    <tripinfo id="h11868c1:5" depart="57700.00" departLane="315358254#0_1" departPos="5.10" departSpeed="0.00" departDelay="0.10" arrival="57858.00" arrivalLane="386687235_1" arrivalPos="80.84" arrivalSpeed="13.38" duration="158.00" routeLength="1611.92" waitingTime="20.00" waitingCount="2" stopTime="0.00" timeLoss="42.48" rerouteNo="1" devices="tripinfo_h11868c1:5 routing_h11868c1:5" vType="default_016" speedFactor="1.02" vaporized=""/>
    <tripinfo id="h11737c1:1" depart="57665.00" departLane="272042143_1" departPos="5.10" departSpeed="0.00" departDelay="1.50" arrival="57861.00" arrivalLane="-315358254#1_1" arrivalPos="137.16" arrivalSpeed="11.83" duration="196.00" routeLength="1596.88" waitingTime="39.00" waitingCount="2" stopTime="0.00" timeLoss="62.72" rerouteNo="1" devices="tripinfo_h11737c1:1 routing_h11737c1:1" vType="default_016" speedFactor="0.87" vaporized=""/>
    <tripinfo id="carIn126288:1" depart="57674.00" departLane="272042143_1" departPos="5.10" departSpeed="0.00" departDelay="0.00" arrival="57863.00" arrivalLane="-315358254#1_1" arrivalPos="137.16" arrivalSpeed="11.63" duration="189.00" routeLength="1596.88" waitingTime="33.00" waitingCount="2" stopTime="0.00" timeLoss="59.26" rerouteNo="1" devices="tripinfo_carIn126288:1 routing_carIn126288:1" vType="default_016" speedFactor="0.90" vaporized=""/>
    <tripinfo id="carIn73855:1" depart="57743.00" departLane="386687232#0_1" departPos="5.10" departSpeed="0.00" departDelay="0.50" arrival="57867.00" arrivalLane="-315358244_1" arrivalPos="33.95" arrivalSpeed="13.07" duration="124.00" routeLength="1157.39" waitingTime="21.00" waitingCount="2" stopTime="0.00" timeLoss="38.04" rerouteNo="1" devices="tripinfo_carIn73855:1 routing_carIn73855:1" vType="default_016" speedFactor="0.99" vaporized=""/>
    <tripinfo id="carIn81046:1" depart="57611.00" departLane="124812856#0_1" departPos="5.10" departSpeed="0.00" departDelay="2.50" arrival="57869.00" arrivalLane="-128361102#1_1" arrivalPos="274.68" arrivalSpeed="11.77" duration="258.00" routeLength="2250.49" waitingTime="51.00" waitingCount="3" stopTime="0.00" timeLoss="82.58" rerouteNo="1" devices="tripinfo_carIn81046:1 routing_carIn81046:1" vType="default_016" speedFactor="0.94" vaporized=""/>
    <tripinfo id="carIn126378:1" depart="57746.00" departLane="386687232#0_1" departPos="5.10" departSpeed="0.00" departDelay="1.80" arrival="57869.00" arrivalLane="-315358244_1" arrivalPos="33.95" arrivalSpeed="11.99" duration="123.00" routeLength="1157.39" waitingTime="11.00" waitingCount="2" stopTime="0.00" timeLoss="30.84" rerouteNo="1" devices="tripinfo_carIn126378:1 routing_carIn126378:1" vType="default_016" speedFactor="0.92" vaporized=""/>
    <tripinfo id="carIn46110:1" depart="57684.00" departLane="315358244_1" departPos="5.10" departSpeed="0.00" departDelay="1.20" arrival="57870.00" arrivalLane="32978638#0_1" arrivalPos="49.29" arrivalSpeed="13.85" duration="186.00" routeLength="1764.04" waitingTime="26.00" waitingCount="4" stopTime="0.00" timeLoss="63.45" rerouteNo="1" devices="tripinfo_carIn46110:1 routing_carIn46110:1" vType="default_016" speedFactor="1.05" vaporized=""/>
    <tripinfo id="h19804c1:3" depart="57617.00" departLane="124812856#0_1" departPos="5.10" departSpeed="0.00" departDelay="1.50" arrival="57871.00" arrivalLane="-128361102#1_1" arrivalPos="274.68" arrivalSpeed="13.38" duration="254.00" routeLength="2250.49" waitingTime="54.00" waitingCount="2" stopTime="0.00" timeLoss="91.82" rerouteNo="1" devices="tripinfo_h19804c1:3 routing_h19804c1:3" vType="default_016" speedFactor="1.01" vaporized=""/>
    <tripinfo id="carIn70533:1" depart="57812.00" departLane="-447569998#1_1" departPos="5.10" departSpeed="0.00" departDelay="0.10" arrival="57873.00" arrivalLane="-315358244_1" arrivalPos="33.95" arrivalSpeed="14.99" duration="61.00" routeLength="706.49" waitingTime="0.00" waitingCount="0" stopTime="0.00" timeLoss="6.42" rerouteNo="1" devices="tripinfo_carIn70533:1 routing_carIn70533:1" vType="default_016" speedFactor="1.11" vaporized=""/>
    <tripinfo id="carIn85747:1" depart="57673.00" departLane="128361109#1_1" departPos="5.10" departSpeed="0.00" departDelay="0.70" arrival="57880.00" arrivalLane="386687235_1" arrivalPos="80.84" arrivalSpeed="13.33" duration="207.00" routeLength="2088.57" waitingTime="27.00" waitingCount="3" stopTime="0.00" timeLoss="60.90" rerouteNo="1" devices="tripinfo_carIn85747:1 routing_carIn85747:1" vType="default_016" speedFactor="1.03" vaporized=""/>
    <tripinfo id="carIn7949:1" depart="57676.00" departLane="128361109#1_1" departPos="5.10" departSpeed="0.00" departDelay="2.10" arrival="57880.00" arrivalLane="386687235_2" arrivalPos="80.84" arrivalSpeed="12.98" duration="204.00" routeLength="2088.57" waitingTime="21.00" waitingCount="3" stopTime="0.00" timeLoss="51.78" rerouteNo="1" devices="tripinfo_carIn7949:1 routing_carIn7949:1" vType="default_016" speedFactor="0.99" vaporized=""/>
    <tripinfo id="h6541c1:3" depart="57727.00" departLane="201950247#3_1" departPos="5.10" departSpeed="0.00" departDelay="0.00" arrival="57880.00" arrivalLane="32978638#0_1" arrivalPos="49.29" arrivalSpeed="14.98" duration="153.00" routeLength="1176.17" waitingTime="25.00" waitingCount="5" stopTime="0.00" timeLoss="63.39" rerouteNo="1" devices="tripinfo_h6541c1:3 routing_h6541c1:3" vType="default_016" speedFactor="1.15" vaporized=""/>
    <tripinfo id="carIn118538:1" depart="57683.00" departLane="-447569998#1_1" departPos="5.10" departSpeed="0.00" departDelay="1.00" arrival="57882.00" arrivalLane="399835085#1_1" arrivalPos="212.23" arrivalSpeed="8.32" duration="199.00" routeLength="1907.17" waitingTime="14.00" waitingCount="3" stopTime="0.00" timeLoss="46.12" rerouteNo="1" devices="tripinfo_carIn118538:1 routing_carIn118538:1" vType="default_016" speedFactor="1.06" vaporized=""/>
    <tripinfo id="carIn29676:1" depart="57789.00" departLane="-160314345#5_1" departPos="5.10" departSpeed="0.00" departDelay="0.00" arrival="57884.00" arrivalLane="-24634505_1" arrivalPos="48.18" arrivalSpeed="16.69" duration="95.00" routeLength="1162.34" waitingTime="0.00" waitingCount="0" stopTime="0.00" timeLoss="21.76" rerouteNo="1" devices="tripinfo_carIn29676:1 routing_carIn29676:1" vType="default_016" speedFactor="1.23" vaporized=""/>