<?xml version="1.0" encoding="UTF-8"?>

<!-- generated on 2024-04-14 23:01:00 by Eclipse SUMO sumo Version 1.19.0
<configuration xmlns:xsi="http://www.w3.org/2001/XMLSchema-instance" xsi:noNamespaceSchemaLocation="http://sumo.dlr.de/xsd/sumoConfiguration.xsd">

    <input>
        <net-file value="/home/vatsal/RESCO-main/resco_benchmark/environments/ingolstadt21/ingolstadt21.net.xml"/>
        <route-files value="/home/vatsal/RESCO-main/resco_benchmark/environments/ingolstadt21/ingolstadt21.rou.xml"/>
    </input>

    <output>
        <tripinfo-output value="/home/vatsal/RESCO-main/results/IDQN-tr0-ingolstadt21-21-drq_norm-wait_norm/tripinfo_3.xml"/>
        <tripinfo-output.write-unfinished value="true"/>
    </output>

    <time>
        <begin value="57600"/>
        <end value="61200"/>
    </time>

    <processing>
        <time-to-teleport value="-1"/>
    </processing>

    <report>
        <no-warnings value="True"/>
        <no-step-log value="True"/>
    </report>

    <traci_server>
        <remote-port value="60767"/>
    </traci_server>

    <random_number>
        <random value="true"/>
    </random_number>

</configuration>
-->

<tripinfos xmlns:xsi="http://www.w3.org/2001/XMLSchema-instance" xsi:noNamespaceSchemaLocation="http://sumo.dlr.de/xsd/tripinfo_file.xsd">
    <tripinfo id="h15454c2:3" depart="57612.00" departLane="24608844_1" departPos="5.10" departSpeed="0.00" departDelay="0.50" arrival="57657.00" arrivalLane="32978638#0_1" arrivalPos="49.29" arrivalSpeed="13.89" duration="45.00" routeLength="354.79" waitingTime="4.00" waitingCount="1" stopTime="0.00" timeLoss="11.40" rerouteNo="1" devices="tripinfo_h15454c2:3 routing_h15454c2:3" vType="default_016" speedFactor="1.02" vaporized=""/>
    <tripinfo id="carIn60260:1" depart="57606.00" departLane="315358254#0_1" departPos="5.10" departSpeed="0.00" departDelay="0.90" arrival="57661.00" arrivalLane="399835085#1_1" arrivalPos="212.23" arrivalSpeed="8.64" duration="55.00" routeLength="430.98" waitingTime="1.00" waitingCount="1" stopTime="0.00" timeLoss="10.95" rerouteNo="1" devices="tripinfo_carIn60260:1 routing_carIn60260:1" vType="default_016" speedFactor="1.04" vaporized=""/>
    <tripinfo id="carIn53971:1" depart="57640.00" departLane="272042143_1" departPos="5.10" departSpeed="0.00" departDelay="0.80" arrival="57695.00" arrivalLane="24634414#1_1" arrivalPos="162.19" arrivalSpeed="8.26" duration="55.00" routeLength="493.04" waitingTime="0.00" waitingCount="0" stopTime="0.00" timeLoss="9.16" rerouteNo="1" devices="tripinfo_carIn53971:1 routing_carIn53971:1" vType="default_016" speedFactor="0.99" vaporized=""/>
    <tripinfo id="h3688c1:1" depart="57625.00" departLane="201201950#1_1" departPos="5.10" departSpeed="0.00" departDelay="0.00" arrival="57722.00" arrivalLane="32978638#0_1" arrivalPos="49.29" arrivalSpeed="11.90" duration="97.00" routeLength="1089.75" waitingTime="0.00" waitingCount="0" stopTime="0.00" timeLoss="9.33" rerouteNo="1" devices="tripinfo_h3688c1:1 routing_h3688c1:1" vType="default_016" speedFactor="0.92" vaporized=""/>
    <tripinfo id="carIn22761:1" depart="57616.00" departLane="-306240162#1_0" departPos="5.10" departSpeed="0.00" departDelay="2.10" arrival="57729.00" arrivalLane="399835085#1_1" arrivalPos="212.23" arrivalSpeed="6.32" duration="113.00" routeLength="1093.26" waitingTime="11.00" waitingCount="1" stopTime="0.00" timeLoss="24.96" rerouteNo="1" devices="tripinfo_carIn22761:1 routing_carIn22761:1" vType="default_016" speedFactor="0.88" vaporized=""/>
    <tripinfo id="h7800c1:5" depart="57696.00" departLane="-447569998#1_1" departPos="5.10" departSpeed="0.00" departDelay="0.00" arrival="57729.00" arrivalLane="-447569998#1_1" arrivalPos="180.76" arrivalSpeed="5.83" duration="33.00" routeLength="175.66" waitingTime="0.00" waitingCount="0" stopTime="0.00" timeLoss="4.30" rerouteNo="1" devices="tripinfo_h7800c1:5 routing_h7800c1:5" vType="default_016" speedFactor="0.76" vaporized=""/>
    <tripinfo id="h4538c1:1" depart="57701.00" departLane="-10427692#1_1" departPos="5.10" departSpeed="0.00" departDelay="0.00" arrival="57742.00" arrivalLane="-128361102#1_1" arrivalPos="274.68" arrivalSpeed="15.07" duration="41.00" routeLength="440.74" waitingTime="3.00" waitingCount="1" stopTime="0.00" timeLoss="13.34" rerouteNo="1" devices="tripinfo_h4538c1:1 routing_h4538c1:1" vType="default_016" speedFactor="1.15" vaporized=""/>
    <tripinfo id="h317c2:1" depart="57707.00" departLane="-32978638#0_1" departPos="5.10" departSpeed="0.00" departDelay="0.10" arrival="57742.00" arrivalLane="-266565295#5_1" arrivalPos="172.76" arrivalSpeed="12.11" duration="35.00" routeLength="370.53" waitingTime="0.00" waitingCount="0" stopTime="0.00" timeLoss="5.99" rerouteNo="1" devices="tripinfo_h317c2:1 routing_h317c2:1" vType="default_016" speedFactor="0.94" vaporized=""/>
    <tripinfo id="h3568c1:3" depart="57656.00" departLane="266565295#5_1" departPos="5.10" departSpeed="0.00" departDelay="0.80" arrival="57744.00" arrivalLane="-24634415_1" arrivalPos="62.03" arrivalSpeed="14.81" duration="88.00" routeLength="807.40" waitingTime="11.00" waitingCount="1" stopTime="0.00" timeLoss="29.01" rerouteNo="1" devices="tripinfo_h3568c1:3 routing_h3568c1:3" vType="default_016" speedFactor="1.09" vaporized=""/>
    <tripinfo id="h5979c1:5" depart="57669.00" departLane="399835085#1_1" departPos="5.10" departSpeed="0.00" departDelay="0.00" arrival="57751.00" arrivalLane="-315358254#1_1" arrivalPos="137.16" arrivalSpeed="14.07" duration="82.00" routeLength="659.33" waitingTime="0.00" waitingCount="0" stopTime="0.00" timeLoss="10.24" rerouteNo="1" devices="tripinfo_h5979c1:5 routing_h5979c1:5" vType="default_016" speedFactor="1.03" vaporized=""/>
    <tripinfo id="h12244c1:3" depart="57612.00" departLane="315358244_1" departPos="5.10" departSpeed="0.00" departDelay="0.40" arrival="57757.00" arrivalLane="386687235_1" arrivalPos="80.84" arrivalSpeed="12.32" duration="145.00" routeLength="1186.14" waitingTime="35.00" waitingCount="4" stopTime="0.00" timeLoss="55.60" rerouteNo="1" devices="tripinfo_h12244c1:3 routing_h12244c1:3" vType="default_016" speedFactor="0.97" vaporized=""/>
    <tripinfo id="carIn80064:1" depart="57603.00" departLane="128361109#1_1" departPos="5.10" departSpeed="0.00" departDelay="0.40" arrival="57758.00" arrivalLane="-315358254#1_1" arrivalPos="137.16" arrivalSpeed="12.42" duration="155.00" routeLength="1587.97" waitingTime="24.00" waitingCount="2" stopTime="0.00" timeLoss="58.36" rerouteNo="1" devices="tripinfo_carIn80064:1 routing_carIn80064:1" vType="default_016" speedFactor="0.92" vaporized=""/>
    <tripinfo id="h3154c1:1" depart="57658.00" departLane="24634507_1" departPos="5.10" departSpeed="0.00" departDelay="0.00" arrival="57759.00" arrivalLane="-266565295#5_1" arrivalPos="172.76" arrivalSpeed="14.24" duration="101.00" routeLength="1206.22" waitingTime="1.00" waitingCount="1" stopTime="0.00" timeLoss="15.04" rerouteNo="1" devices="tripinfo_h3154c1:1 routing_h3154c1:1" vType="default_016" speedFactor="1.03" vaporized=""/>
    <tripinfo id="carIn30817:1" depart="57681.00" departLane="315358244_1" departPos="5.10" departSpeed="0.00" departDelay="0.20" arrival="57761.00" arrivalLane="447569997#1_1" arrivalPos="180.93" arrivalSpeed="7.56" duration="80.00" routeLength="718.04" waitingTime="4.00" waitingCount="1" stopTime="0.00" timeLoss="18.44" rerouteNo="1" devices="tripinfo_carIn30817:1 routing_carIn30817:1" vType="default_016" speedFactor="1.01" vaporized=""/>
    <tripinfo id="h3326c1:2" depart="57656.00" departLane="22716069#0_1" departPos="5.10" departSpeed="0.00" departDelay="0.00" arrival="57765.00" arrivalLane="24634517#13_1" arrivalPos="111.62" arrivalSpeed="13.55" duration="109.00" routeLength="1312.81" waitingTime="0.00" waitingCount="0" stopTime="0.00" timeLoss="14.36" rerouteNo="1" devices="tripinfo_h3326c1:2 routing_h3326c1:2" vType="default_016" speedFactor="1.04" vaporized=""/>
    <tripinfo id="carIn27009:1" depart="57673.00" departLane="-447569998#1_1" departPos="5.10" departSpeed="0.00" departDelay="0.50" arrival="57770.00" arrivalLane="-26677539_1" arrivalPos="152.75" arrivalSpeed="9.67" duration="97.00" routeLength="699.63" waitingTime="10.00" waitingCount="1" stopTime="0.00" timeLoss="25.50" rerouteNo="1" devices="tripinfo_carIn27009:1 routing_carIn27009:1" vType="default_015" speedFactor="1.18" vaporized=""/>
    <tripinfo id="h7181c1:1" depart="57660.00" departLane="315358254#0_1" departPos="5.10" departSpeed="0.00" departDelay="0.10" arrival="57777.00" arrivalLane="306240162#0_0" arrivalPos="220.43" arrivalSpeed="16.29" duration="117.00" routeLength="932.35" waitingTime="44.00" waitingCount="2" stopTime="0.00" timeLoss="66.31" rerouteNo="1" devices="tripinfo_h7181c1:1 routing_h7181c1:1" vType="default_016" speedFactor="1.01" vaporized=""/>
    <tripinfo id="h330c1:1" depart="57736.00" departLane="-32978638#0_1" departPos="5.10" departSpeed="0.00" departDelay="0.20" arrival="57783.00" arrivalLane="-266565295#5_1" arrivalPos="172.76" arrivalSpeed="11.51" duration="47.00" routeLength="370.53" waitingTime="6.00" waitingCount="1" stopTime="0.00" timeLoss="16.46" rerouteNo="1" devices="tripinfo_h330c1:1 routing_h330c1:1" vType="default_016" speedFactor="0.89" vaporized=""/>
    <tripinfo id="S5R_frequency1.2" depart="57657.00" departLane="315358250#0_1" departPos="12.10" departSpeed="0.00" departDelay="45.40" arrival="57787.00" arrivalLane="386687235_1" arrivalPos="80.84" arrivalSpeed="13.11" duration="130.00" routeLength="1115.62" waitingTime="25.00" waitingCount="3" stopTime="0.00" timeLoss="48.82" rerouteNo="1" devices="tripinfo_S5R_frequency1.2 routing_S5R_frequency1.2" vType="bus" speedFactor="1.00" vaporized=""/>
    <tripinfo id="h9563c2:5" depart="57631.00" departLane="315358244_1" departPos="5.10" departSpeed="0.00" departDelay="0.70" arrival="57790.00" arrivalLane="386687235_1" arrivalPos="80.84" arrivalSpeed="10.90" duration="159.00" routeLength="1186.14" waitingTime="35.00" waitingCount="2" stopTime="0.00" timeLoss="53.04" rerouteNo="1" devices="tripinfo_h9563c2:5 routing_h9563c2:5" vType="default_016" speedFactor="0.81" vaporized=""/>
    <tripinfo id="carIn118591:1" depart="57689.00" departLane="315358244_1" departPos="5.10" departSpeed="0.00" departDelay="0.20" arrival="57792.00" arrivalLane="386687235_1" arrivalPos="80.84" arrivalSpeed="13.43" duration="103.00" routeLength="1186.14" waitingTime="0.00" waitingCount="0" stopTime="0.00" timeLoss="19.46" rerouteNo="1" devices="tripinfo_carIn118591:1 routing_carIn118591:1" vType="default_016" speedFactor="1.04" vaporized=""/>
    <tripinfo id="carIn107282:1" depart="57749.00" departLane="-447569998#1_1" departPos="5.10" departSpeed="0.00" departDelay="0.00" arrival="57803.00" arrivalLane="315358242#0_1" arrivalPos="165.37" arrivalSpeed="12.82" duration="54.00" routeLength="448.50" waitingTime="1.00" waitingCount="1" stopTime="0.00" timeLoss="9.13" rerouteNo="1" devices="tripinfo_carIn107282:1 routing_carIn107282:1" vType="default_016" speedFactor="0.93" vaporized=""/>
    <tripinfo id="carIn12858:1" depart="57661.00" departLane="128361109#1_1" departPos="5.10" departSpeed="0.00" departDelay="0.90" arrival="57805.00" arrivalLane="399835085#1_1" arrivalPos="212.23" arrivalSpeed="8.04" duration="144.00" routeLength="1738.12" waitingTime="0.00" waitingCount="0" stopTime="0.00" timeLoss="25.24" rerouteNo="1" devices="tripinfo_carIn12858:1 routing_carIn12858:1" vType="default_016" speedFactor="0.97" vaporized=""/>
    <tripinfo id="carIn28951:1" depart="57606.00" departLane="10425609#0_1" departPos="5.10" departSpeed="0.00" departDelay="0.20" arrival="57815.00" arrivalLane="-128361102#1_1" arrivalPos="274.68" arrivalSpeed="11.55" duration="209.00" routeLength="2113.04" waitingTime="10.00" waitingCount="2" stopTime="0.00" timeLoss="34.21" rerouteNo="1" devices="tripinfo_carIn28951:1 routing_carIn28951:1" vType="default_016" speedFactor="0.89" vaporized=""/>
    <tripinfo id="h11737c1:1" depart="57665.00" departLane="272042143_1" departPos="5.10" departSpeed="0.00" departDelay="1.50" arrival="57818.00" arrivalLane="-315358254#1_1" arrivalPos="137.16" arrivalSpeed="13.35" duration="153.00" routeLength="1596.88" waitingTime="23.00" waitingCount="1" stopTime="0.00" timeLoss="40.01" rerouteNo="1" devices="tripinfo_h11737c1:1 routing_h11737c1:1" vType="default_016" speedFactor="1.04" vaporized=""/>
    <tripinfo id="carIn82278:1" depart="57702.00" departLane="-306240162#1_0" departPos="5.10" departSpeed="0.00" departDelay="0.70" arrival="57818.00" arrivalLane="399835085#1_1" arrivalPos="212.23" arrivalSpeed="8.77" duration="116.00" routeLength="1093.26" waitingTime="12.00" waitingCount="2" stopTime="0.00" timeLoss="49.20" rerouteNo="1" devices="tripinfo_carIn82278:1 routing_carIn82278:1" vType="default_016" speedFactor="1.17" vaporized=""/>
    <tripinfo id="carIn129809:1" depart="57729.00" departLane="-447569998#1_1" departPos="5.10" departSpeed="0.00" departDelay="1.00" arrival="57823.00" arrivalLane="-315358244_1" arrivalPos="33.95" arrivalSpeed="13.34" duration="94.00" routeLength="706.49" waitingTime="16.00" waitingCount="3" stopTime="0.00" timeLoss="34.61" rerouteNo="1" devices="tripinfo_carIn129809:1 routing_carIn129809:1" vType="default_015" speedFactor="1.02" vaporized=""/>
    <tripinfo id="carIn121703:1" depart="57647.00" departLane="386687232#0_1" departPos="5.10" departSpeed="0.00" departDelay="0.30" arrival="57825.00" arrivalLane="-315358244_1" arrivalPos="33.95" arrivalSpeed="13.97" duration="178.00" routeLength="1157.39" waitingTime="78.00" waitingCount="2" stopTime="0.00" timeLoss="95.42" rerouteNo="1" devices="tripinfo_carIn121703:1 routing_carIn121703:1" vType="default_016" speedFactor="1.02" vaporized=""/>
    <tripinfo id="h645c1:1" depart="57622.00" departLane="266565295#5_1" departPos="5.10" departSpeed="0.00" departDelay="0.40" arrival="57833.00" arrivalLane="-315358244_1" arrivalPos="33.95" arrivalSpeed="11.13" duration="211.00" routeLength="1910.83" waitingTime="27.00" waitingCount="2" stopTime="0.00" timeLoss="48.88" rerouteNo="1" devices="tripinfo_h645c1:1 routing_h645c1:1" vType="default_016" speedFactor="0.86" vaporized=""/>
    <tripinfo id="carIn126288:1" depart="57674.00" departLane="272042143_1" departPos="5.10" departSpeed="0.00" departDelay="0.00" arrival="57833.00" arrivalLane="-315358254#1_1" arrivalPos="137.16" arrivalSpeed="12.17" duration="159.00" routeLength="1596.88" waitingTime="13.00" waitingCount="2" stopTime="0.00" timeLoss="33.86" rerouteNo="1" devices="tripinfo_carIn126288:1 routing_carIn126288:1" vType="default_016" speedFactor="0.93" vaporized=""/>
    <tripinfo id="randUni15030:1" depart="57735.00" departLane="386687232#0_1" departPos="5.10" departSpeed="0.00" departDelay="0.10" arrival="57837.00" arrivalLane="26677539_1" arrivalPos="151.98" arrivalSpeed="6.81" duration="102.00" routeLength="919.89" waitingTime="0.00" waitingCount="0" stopTime="0.00" timeLoss="16.40" rerouteNo="1" devices="tripinfo_randUni15030:1 routing_randUni15030:1" vType="random_016" speedFactor="0.97" vaporized=""/>
    <tripinfo id="randUni31145:1" depart="57814.00" departLane="10425609#0_1" departPos="5.10" departSpeed="0.00" departDelay="0.30" arrival="57840.00" arrivalLane="201956810_1" arrivalPos="71.65" arrivalSpeed="13.10" duration="26.00" routeLength="255.78" waitingTime="0.00" waitingCount="0" stopTime="0.00" timeLoss="6.05" rerouteNo="1" devices="tripinfo_randUni31145:1 routing_randUni31145:1" vType="random_016" speedFactor="1.02" vaporized=""/>
    <tripinfo id="carIn46110:1" depart="57684.00" departLane="315358244_1" departPos="5.10" departSpeed="0.00" departDelay="1.20" arrival="57841.00" arrivalLane="32978638#0_1" arrivalPos="49.29" arrivalSpeed="13.27" duration="157.00" routeLength="1764.04" waitingTime="6.00" waitingCount="3" stopTime="0.00" timeLoss="30.74" rerouteNo="1" devices="tripinfo_carIn46110:1 routing_carIn46110:1" vType="default_016" speedFactor="1.02" vaporized=""/>
    <tripinfo id="h20540c1:1" depart="57634.00" departLane="10425609#0_1" departPos="5.10" departSpeed="0.00" departDelay="0.50" arrival="57843.00" arrivalLane="-128361102#1_1" arrivalPos="274.68" arrivalSpeed="14.61" duration="209.00" routeLength="2113.04" waitingTime="39.00" waitingCount="3" stopTime="0.00" timeLoss="70.70" rerouteNo="1" devices="tripinfo_h20540c1:1 routing_h20540c1:1" vType="default_016" speedFactor="1.13" vaporized=""/>
    <tripinfo id="h15382c1:3" depart="57625.00" departLane="124812856#0_1" departPos="5.10" departSpeed="0.00" departDelay="2.80" arrival="57846.00" arrivalLane="-128361102#1_1" arrivalPos="274.68" arrivalSpeed="14.46" duration="221.00" routeLength="2250.49" waitingTime="33.00" waitingCount="3" stopTime="0.00" timeLoss="68.40" rerouteNo="1" devices="tripinfo_h15382c1:3 routing_h15382c1:3" vType="default_016" speedFactor="1.07" vaporized=""/>
    <tripinfo id="randUni2407:1" depart="57820.00" departLane="10425609#0_1" departPos="5.10" departSpeed="0.00" departDelay="0.80" arrival="57847.00" arrivalLane="201956810_1" arrivalPos="71.65" arrivalSpeed="12.24" duration="27.00" routeLength="255.78" waitingTime="0.00" waitingCount="0" stopTime="0.00" timeLoss="5.98" rerouteNo="1" devices="tripinfo_randUni2407:1 routing_randUni2407:1" vType="random_016" speedFactor="0.95" vaporized=""/>
    <tripinfo id="carIn86816:1" depart="57617.00" departLane="128361102#0_1" departPos="5.10" departSpeed="0.00" departDelay="0.80" arrival="57856.00" arrivalLane="201956811#0_1" arrivalPos="40.40" arrivalSpeed="11.55" duration="239.00" routeLength="2067.33" waitingTime="49.00" waitingCount="1" stopTime="0.00" timeLoss="75.64" rerouteNo="1" devices="tripinfo_carIn86816:1 routing_carIn86816:1" vType="default_016" speedFactor="0.92" vaporized=""/>
    <tripinfo id="carIn102915:1" depart="57643.00" departLane="128361102#0_1" departPos="5.10" departSpeed="0.00" departDelay="0.40" arrival="57857.00" arrivalLane="201956811#0_1" arrivalPos="40.40" arrivalSpeed="14.27" duration="214.00" routeLength="2067.33" waitingTime="26.00" waitingCount="1" stopTime="0.00" timeLoss="70.28" rerouteNo="1" devices="tripinfo_carIn102915:1 routing_carIn102915:1" vType="default_016" speedFactor="1.05" vaporized=""/>
    <tripinfo id="h5938c1:1" depart="57740.00" departLane="-26677542#0_1" departPos="5.10" departSpeed="0.00" departDelay="0.00" arrival="57858.00" arrivalLane="447569997#1_1" arrivalPos="180.93" arrivalSpeed="6.48" duration="118.00" routeLength="1093.64" waitingTime="0.00" waitingCount="0" stopTime="0.00" timeLoss="14.39" rerouteNo="1" devices="tripinfo_h5938c1:1 routing_h5938c1:1" vType="default_016" speedFactor="0.93" vaporized=""/>
    <tripinfo id="randUni33724:1" depart="57646.00" departLane="128361102#0_1" departPos="5.10" departSpeed="0.00" departDelay="1.20" arrival="57859.00" arrivalLane="201956811#0_1" arrivalPos="40.40" arrivalSpeed="13.19" duration="213.00" routeLength="2067.33" waitingTime="24.00" waitingCount="1" stopTime="0.00" timeLoss="59.14" rerouteNo="1" devices="tripinfo_randUni33724:1 routing_randUni33724:1" vType="random_016" speedFactor="0.98" vaporized=""/>
    <tripinfo id="carIn12775:1" depart="57676.00" departLane="10425609#0_1" departPos="5.10" departSpeed="0.00" departDelay="0.60" arrival="57859.00" arrivalLane="18809673#0_1" arrivalPos="473.56" arrivalSpeed="15.21" duration="183.00" routeLength="1959.45" waitingTime="19.00" waitingCount="2" stopTime="0.00" timeLoss="54.24" rerouteNo="1" devices="tripinfo_carIn12775:1 routing_carIn12775:1" vType="default_016" speedFactor="1.14" vaporized=""/>
    <tripinfo id="carIn8642:1" depart="57774.00" departLane="-447569998#1_1" departPos="5.10" departSpeed="0.00" departDelay="0.90" arrival="57864.00" arrivalLane="-315358244_1" arrivalPos="33.95" arrivalSpeed="10.39" duration="90.00" routeLength="706.49" waitingTime="1.00" waitingCount="1" stopTime="0.00" timeLoss="10.81" rerouteNo="1" devices="tripinfo_carIn8642:1 routing_carIn8642:1" vType="default_016" speedFactor="0.77" vaporized=""/>
    <tripinfo id="h17890c1:3" depart="57792.00" departLane="386687232#0_1" departPos="5.10" departSpeed="0.00" departDelay="0.00" arrival="57864.00" arrivalLane="32978638#0_1" arrivalPos="49.29" arrivalSpeed="15.21" duration="72.00" routeLength="792.72" waitingTime="5.00" waitingCount="1" stopTime="0.00" timeLoss="17.76" rerouteNo="1" devices="tripinfo_h17890c1:3 routing_h17890c1:3" vType="default_016" speedFactor="1.10" vaporized=""/>
    <tripinfo id="h17600c1:1" depart="57662.00" departLane="272042143_1" departPos="5.10" departSpeed="0.00" departDelay="0.30" arrival="57868.00" arrivalLane="201238729#3_1" arrivalPos="431.02" arrivalSpeed="15.72" duration="206.00" routeLength="2100.26" waitingTime="56.00" waitingCount="1" stopTime="0.00" timeLoss="74.23" rerouteNo="1" devices="tripinfo_h17600c1:1 routing_h17600c1:1" vType="default_016" speedFactor="1.15" vaporized=""/>
    <tripinfo id="carIn12152:1" depart="57647.00" departLane="24599188#0.94_1" departPos="5.10" departSpeed="0.00" departDelay="0.50" arrival="57869.00" arrivalLane="-315358254#1_1" arrivalPos="137.16" arrivalSpeed="11.68" duration="222.00" routeLength="2034.31" waitingTime="14.00" waitingCount="2" stopTime="0.00" timeLoss="37.60" rerouteNo="1" devices="tripinfo_carIn12152:1 routing_carIn12152:1" vType="default_016" speedFactor="0.86" vaporized=""/>
    <tripinfo id="carIn82220:1" depart="57619.00" departLane="-306240162#1_0" departPos="5.10" departSpeed="0.00" departDelay="3.50" arrival="57870.00" arrivalLane="386687235_2" arrivalPos="80.84" arrivalSpeed="12.51" duration="251.00" routeLength="2257.41" waitingTime="58.00" waitingCount="3" stopTime="0.00" timeLoss="101.29" rerouteNo="1" devices="tripinfo_carIn82220:1 routing_carIn82220:1" vType="default_016" speedFactor="0.99" vaporized=""/>
    <tripinfo id="h16072c2:3" depart="57663.00" departLane="315358254#0_1" departPos="5.10" departSpeed="0.00" departDelay="2.50" arrival="57870.00" arrivalLane="386687235_1" arrivalPos="80.84" arrivalSpeed="12.98" duration="207.00" routeLength="1611.92" waitingTime="56.00" waitingCount="2" stopTime="0.00" timeLoss="81.40" rerouteNo="1" devices="tripinfo_h16072c2:3 routing_h16072c2:3" vType="default_016" speedFactor="0.94" vaporized=""/>
    <tripinfo id="h6541c1:3" depart="57727.00" departLane="201950247#3_1" departPos="5.10" departSpeed="0.00" departDelay="0.00" arrival="57870.00" arrivalLane="32978638#0_1" arrivalPos="49.29" arrivalSpeed="14.03" duration="143.00" routeLength="1176.17" waitingTime="28.00" waitingCount="1" stopTime="0.00" timeLoss="44.59" rerouteNo="1" devices="tripinfo_h6541c1:3 routing_h6541c1:3" vType="default_016" speedFactor="1.03" vaporized=""/>
    <tripinfo id="50R_frequency3.17" depart="57674.00" departLane="-18809673#6_1" departPos="12.10" departSpeed="0.00" departDelay="0.70" arrival="57873.00" arrivalLane="201956811#0_1" arrivalPos="40.40" arrivalSpeed="11.53" duration="199.00" routeLength="1954.47" waitingTime="25.00" waitingCount="1" stopTime="0.00" timeLoss="53.94" rerouteNo="1" devices="tripinfo_50R_frequency3.17 routing_50R_frequency3.17" vType="bus" speedFactor="1.00" vaporized=""/>
    <tripinfo id="h3536c1:1" depart="57767.00" departLane="-24634413#2_1" departPos="5.10" departSpeed="0.00" departDelay="0.00" arrival="57873.00" arrivalLane="32978638#0_1" arrivalPos="49.29" arrivalSpeed="13.88" duration="106.00" routeLength="953.61" waitingTime="5.00" waitingCount="1" stopTime="0.00" timeLoss="21.75" rerouteNo="1" devices="tripinfo_h3536c1:1 routing_h3536c1:1" vType="default_016" speedFactor="1.07" vaporized=""/>
    <tripinfo id="h17549c1:1" depart="57680.00" departLane="-447569998#1_1" departPos="5.10" departSpeed="0.00" departDelay="0.00" arrival="57874.00" arrivalLane="-315358254#1_1" arrivalPos="137.16" arrivalSpeed="12.12" duration="194.00" routeLength="1746.60" waitingTime="24.00" waitingCount="1" stopTime="0.00" timeLoss="44.86" rerouteNo="1" devices="tripinfo_h17549c1:1 routing_h17549c1:1" vType="default_016" speedFactor="0.92" vaporized=""/>
    <tripinfo id="carIn462:1" depart="57622.00" departLane="-306240162#1_0" departPos="5.10" departSpeed="0.00" departDelay="4.80" arrival="57879.00" arrivalLane="386687235_2" arrivalPos="80.84" arrivalSpeed="16.21" duration="257.00" routeLength="2257.41" waitingTime="61.00" waitingCount="4" stopTime="0.00" timeLoss="134.40" rerouteNo="1" devices="tripinfo_carIn462:1 routing_carIn462:1" vType="default_016" speedFactor="1.21" vaporized=""/>
    <tripinfo id="h3864c1:3" depart="57678.00" departLane="24693977#1_1" departPos="5.10" departSpeed="0.00" departDelay="0.00" arrival="57880.00" arrivalLane="201956820_1" arrivalPos="48.33" arrivalSpeed="12.59" duration="202.00" routeLength="1574.85" waitingTime="31.00" waitingCount="3" stopTime="0.00" timeLoss="63.42" rerouteNo="1" devices="tripinfo_h3864c1:3 routing_h3864c1:3" vType="default_016" speedFactor="0.93" vaporized=""/>
    <tripinfo id="carIn48184:1" depart="57613.00" departLane="-306240162#1_0" departPos="5.10" departSpeed="0.00" departDelay="0.70" arrival="57881.00" arrivalLane="386687235_1" arrivalPos="80.84" arrivalSpeed="11.70" duration="268.00" routeLength="2257.41" waitingTime="64.00" waitingCount="3" stopTime="0.00" timeLoss="103.01" rerouteNo="1" devices="tripinfo_carIn48184:1 routing_carIn48184:1" vType="default_016" speedFactor="0.90" vaporized=""/>
    <tripinfo id="h8343c1:5" depart="57679.00" departLane="315358254#0_1" departPos="5.10" departSpeed="0.00" departDelay="0.60" arrival="57882.00" arrivalLane="-24634510#5_1" arrivalPos="236.88" arrivalSpeed="15.77" duration="203.00" routeLength="2056.84" waitingTime="65.00" waitingCount="2" stopTime="0.00" timeLoss="97.64" rerouteNo="1" devices="tripinfo_h8343c1:5 routing_h8343c1:5" vType="default_016" speedFactor="1.19" vaporized=""/>
    <tripinfo id="carIn73855:1" depart="57743.00" departLane="386687232#0_1" departPos="5.10" departSpeed="0.00" departDelay="0.50" arrival="57884.00" arrivalLane="-315358244_1" arrivalPos="33.95" arrivalSpeed="13.12" duration="141.00" routeLength="1157.39" waitingTime="29.00" waitingCount="3" stopTime="0.00" timeLoss="52.15" rerouteNo="1" devices="tripinfo_carIn73855:1 routing_carIn73855:1" vType="default_016" speedFactor="0.96" vaporized=""/>
    <tripinfo id="carIn126378:1" depart="57746.00" departLane="386687232#0_1" departPos="5.10" departSpeed="0.00" departDelay="1.80" arrival="57884.00" arrivalLane="-315358244_2" arrivalPos="33.95" arrivalSpeed="11.62" duration="138.00" routeLength="1157.39" waitingTime="20.00" waitingCount="3" stopTime="0.00" timeLoss="46.16" rerouteNo="1" devices="tripinfo_carIn126378:1 routing_carIn126378:1" vType="default_016" speedFactor="0.93" vaporized=""/>
    <tripinfo id="h5239c1:3" depart="57834.00" departLane="315358254#0_1" departPos="5.10" departSpeed="0.00" departDelay="0.80" arrival="57884.00" arrivalLane="224892361#3_1" arrivalPos="220.30" arrivalSpeed="21.81" duration="50.00" routeLength="793.34" waitingTime="0.00" waitingCount="0" stopTime="0.00" timeLoss="9.01" rerouteNo="1" devices="tripinfo_h5239c1:3 routing_h5239c1:3" vType="default_016" speedFactor="0.99" vaporized=""/>
    <tripinfo id="h7097c1:1" depart="57670.00" departLane="315358242#0_1" departPos="5.10" departSpeed="0.00" departDelay="0.60" arrival="57885.00" arrivalLane="306240162#0_0" arrivalPos="220.43" arrivalSpeed="14.08" duration="215.00" routeLength="2586.94" waitingTime="5.00" waitingCount="1" stopTime="0.00" timeLoss="27.18" rerouteNo="1" devices="tripinfo_h7097c1:1 routing_h7097c1:1" vType="default_016" speedFactor="0.92" vaporized=""/>
    <tripinfo id="carIn70533:1" depart="57812.00" departLane="-447569998#1_1" departPos="5.10" departSpeed="0.00" departDelay="0.10" arrival="57885.00" arrivalLane="-315358244_1" arrivalPos="33.95" arrivalSpeed="13.58" duration="73.00" routeLength="706.49" waitingTime="0.00" waitingCount="0" stopTime="0.00" timeLoss="13.75" rerouteNo="1" devices="tripinfo_carIn70533:1 routing_carIn70533:1" vType="default_016" speedFactor="1.02" vaporized=""/>
    <tripinfo id="carIn7949:1" depart="57676.00" departLane="128361109#1_1" departPos="5.10" departSpeed="0.00" departDelay="2.10" arrival="57889.00" arrivalLane="386687235_1" arrivalPos="80.84" arrivalSpeed="15.56" duration="213.00" routeLength="2088.57" waitingTime="53.00" waitingCount="3" stopTime="0.00" timeLoss="83.07" rerouteNo="1" devices="tripinfo_carIn7949:1 routing_carIn7949:1" vType="default_016" speedFactor="1.16" vaporized=""/>
    <tripinfo id="carIn116184:1" depart="57627.00" departLane="-306240162#1_0" departPos="5.10" departSpeed="0.00" departDelay="0.10" arrival="57890.00" arrivalLane="386687235_2" arrivalPos="80.84" arrivalSpeed="14.56" duration="263.00" routeLength="2257.41" waitingTime="63.00" waitingCount="3" stopTime="0.00" timeLoss="123.19" rerouteNo="1" devices="tripinfo_carIn116184:1 routing_carIn116184:1" vType="default_016" speedFactor="1.07" vaporized=""/>
    <tripinfo id="carIn75660:1" depart="57679.00" departLane="128361109#1_1" departPos="5.10" departSpeed="0.00" departDelay="3.40" arrival="57891.00" arrivalLane="386687235_1" arrivalPos="80.84" arrivalSpeed="13.38" duration="212.00" routeLength="2088.57" waitingTime="45.00" waitingCount="1" stopTime="0.00" timeLoss="65.75" rerouteNo="1" devices="tripinfo_carIn75660:1 routing_carIn75660:1" vType="default_016" speedFactor="1.03" vaporized=""/>
    <tripinfo id="carIn13443:1" depart="57729.00" departLane="272042143_1" departPos="5.10" departSpeed="0.00" departDelay="0.80" arrival="57894.00" arrivalLane="399835085#1_1" arrivalPos="212.23" arrivalSpeed="8.34" duration="165.00" routeLength="1757.45" waitingTime="4.00" waitingCount="2" stopTime="0.00" timeLoss="32.32" rerouteNo="1" devices="tripinfo_carIn13443:1 routing_carIn13443:1" vType="default_016" speedFactor="1.07" vaporized=""/>