<?xml version="1.0" encoding="UTF-8"?>

<!-- generated on 2024-04-14 23:06:16 by Eclipse SUMO sumo Version 1.19.0
<configuration xmlns:xsi="http://www.w3.org/2001/XMLSchema-instance" xsi:noNamespaceSchemaLocation="http://sumo.dlr.de/xsd/sumoConfiguration.xsd">

    <input>
        <net-file value="/home/vatsal/RESCO-main/resco_benchmark/environments/ingolstadt21/ingolstadt21.net.xml"/>
        <route-files value="/home/vatsal/RESCO-main/resco_benchmark/environments/ingolstadt21/ingolstadt21.rou.xml"/>
    </input>

    <output>
        <tripinfo-output value="/home/vatsal/RESCO-main/results/IDQN-tr0-ingolstadt21-21-drq_norm-wait_norm/tripinfo_14.xml"/>
        <tripinfo-output.write-unfinished value="true"/>
    </output>

    <time>
        <begin value="57600"/>
        <end value="61200"/>
    </time>

    <processing>
        <time-to-teleport value="-1"/>
    </processing>

    <report>
        <no-warnings value="True"/>
        <no-step-log value="True"/>
    </report>

    <traci_server>
        <remote-port value="41347"/>
    </traci_server>

    <random_number>
        <random value="true"/>
    </random_number>

</configuration>
-->

<tripinfos xmlns:xsi="http://www.w3.org/2001/XMLSchema-instance" xsi:noNamespaceSchemaLocation="http://sumo.dlr.de/xsd/tripinfo_file.xsd">
    <tripinfo id="h15454c2:3" depart="57612.00" departLane="24608844_1" departPos="5.10" departSpeed="0.00" departDelay="0.50" arrival="57651.00" arrivalLane="32978638#0_1" arrivalPos="49.29" arrivalSpeed="13.90" duration="39.00" routeLength="354.79" waitingTime="0.00" waitingCount="0" stopTime="0.00" timeLoss="5.79" rerouteNo="1" devices="tripinfo_h15454c2:3 routing_h15454c2:3" vType="default_016" speedFactor="1.03" vaporized=""/>
    <tripinfo id="carIn60260:1" depart="57606.00" departLane="315358254#0_1" departPos="5.10" departSpeed="0.00" departDelay="0.90" arrival="57660.00" arrivalLane="399835085#1_1" arrivalPos="212.23" arrivalSpeed="7.82" duration="54.00" routeLength="430.98" waitingTime="0.00" waitingCount="0" stopTime="0.00" timeLoss="6.37" rerouteNo="1" devices="tripinfo_carIn60260:1 routing_carIn60260:1" vType="default_016" speedFactor="0.97" vaporized=""/>
    <tripinfo id="carIn53971:1" depart="57640.00" departLane="272042143_1" departPos="5.10" departSpeed="0.00" departDelay="0.80" arrival="57701.00" arrivalLane="24634414#1_1" arrivalPos="162.19" arrivalSpeed="6.80" duration="61.00" routeLength="493.04" waitingTime="0.00" waitingCount="0" stopTime="0.00" timeLoss="7.74" rerouteNo="1" devices="tripinfo_carIn53971:1 routing_carIn53971:1" vType="default_016" speedFactor="0.85" vaporized=""/>
    <tripinfo id="h12244c1:3" depart="57612.00" departLane="315358244_1" departPos="5.10" departSpeed="0.00" departDelay="0.40" arrival="57717.00" arrivalLane="386687235_1" arrivalPos="80.84" arrivalSpeed="12.40" duration="105.00" routeLength="1186.14" waitingTime="1.00" waitingCount="1" stopTime="0.00" timeLoss="15.84" rerouteNo="1" devices="tripinfo_h12244c1:3 routing_h12244c1:3" vType="default_016" speedFactor="0.97" vaporized=""/>
    <tripinfo id="h7800c1:5" depart="57696.00" departLane="-447569998#1_1" departPos="5.10" departSpeed="0.00" departDelay="0.00" arrival="57719.00" arrivalLane="-447569998#1_1" arrivalPos="180.76" arrivalSpeed="8.26" duration="23.00" routeLength="175.66" waitingTime="0.00" waitingCount="0" stopTime="0.00" timeLoss="2.78" rerouteNo="1" devices="tripinfo_h7800c1:5 routing_h7800c1:5" vType="default_016" speedFactor="1.07" vaporized=""/>
    <tripinfo id="h3688c1:1" depart="57625.00" departLane="201201950#1_1" departPos="5.10" departSpeed="0.00" departDelay="0.00" arrival="57726.00" arrivalLane="32978638#0_1" arrivalPos="49.29" arrivalSpeed="13.32" duration="101.00" routeLength="1089.75" waitingTime="8.00" waitingCount="1" stopTime="0.00" timeLoss="21.21" rerouteNo="1" devices="tripinfo_h3688c1:1 routing_h3688c1:1" vType="default_016" speedFactor="1.00" vaporized=""/>
    <tripinfo id="h7181c1:1" depart="57660.00" departLane="315358254#0_1" departPos="5.10" departSpeed="0.00" departDelay="0.10" arrival="57745.00" arrivalLane="306240162#0_0" arrivalPos="220.43" arrivalSpeed="19.00" duration="85.00" routeLength="932.35" waitingTime="20.00" waitingCount="2" stopTime="0.00" timeLoss="40.42" rerouteNo="1" devices="tripinfo_h7181c1:1 routing_h7181c1:1" vType="default_016" speedFactor="1.15" vaporized=""/>
    <tripinfo id="h4538c1:1" depart="57701.00" departLane="-10427692#1_1" departPos="5.10" departSpeed="0.00" departDelay="0.00" arrival="57745.00" arrivalLane="-128361102#1_1" arrivalPos="274.68" arrivalSpeed="11.99" duration="44.00" routeLength="440.74" waitingTime="0.00" waitingCount="0" stopTime="0.00" timeLoss="7.25" rerouteNo="1" devices="tripinfo_h4538c1:1 routing_h4538c1:1" vType="default_016" speedFactor="0.87" vaporized=""/>
    <tripinfo id="h317c2:1" depart="57707.00" departLane="-32978638#0_1" departPos="5.10" departSpeed="0.00" departDelay="0.10" arrival="57745.00" arrivalLane="-266565295#5_1" arrivalPos="172.76" arrivalSpeed="12.82" duration="38.00" routeLength="370.53" waitingTime="2.00" waitingCount="1" stopTime="0.00" timeLoss="9.98" rerouteNo="1" devices="tripinfo_h317c2:1 routing_h317c2:1" vType="default_016" speedFactor="0.98" vaporized=""/>
    <tripinfo id="h3568c1:3" depart="57656.00" departLane="266565295#5_1" departPos="5.10" departSpeed="0.00" departDelay="0.80" arrival="57746.00" arrivalLane="-24634415_1" arrivalPos="62.03" arrivalSpeed="12.87" duration="90.00" routeLength="807.40" waitingTime="5.00" waitingCount="1" stopTime="0.00" timeLoss="24.09" rerouteNo="1" devices="tripinfo_h3568c1:3 routing_h3568c1:3" vType="default_016" speedFactor="0.98" vaporized=""/>
    <tripinfo id="h5979c1:5" depart="57669.00" departLane="399835085#1_1" departPos="5.10" departSpeed="0.00" departDelay="0.00" arrival="57749.00" arrivalLane="-315358254#1_1" arrivalPos="137.16" arrivalSpeed="14.19" duration="80.00" routeLength="659.33" waitingTime="0.00" waitingCount="0" stopTime="0.00" timeLoss="9.24" rerouteNo="1" devices="tripinfo_h5979c1:5 routing_h5979c1:5" vType="default_016" speedFactor="1.03" vaporized=""/>
    <tripinfo id="carIn121703:1" depart="57647.00" departLane="386687232#0_1" departPos="5.10" departSpeed="0.00" departDelay="0.30" arrival="57752.00" arrivalLane="-315358244_1" arrivalPos="33.95" arrivalSpeed="12.20" duration="105.00" routeLength="1157.39" waitingTime="0.00" waitingCount="0" stopTime="0.00" timeLoss="11.23" rerouteNo="1" devices="tripinfo_carIn121703:1 routing_carIn121703:1" vType="default_016" speedFactor="0.90" vaporized=""/>
    <tripinfo id="h9563c2:5" depart="57631.00" departLane="315358244_1" departPos="5.10" departSpeed="0.00" departDelay="0.70" arrival="57753.00" arrivalLane="386687235_1" arrivalPos="80.84" arrivalSpeed="13.56" duration="122.00" routeLength="1186.14" waitingTime="18.00" waitingCount="3" stopTime="0.00" timeLoss="38.39" rerouteNo="1" devices="tripinfo_h9563c2:5 routing_h9563c2:5" vType="default_016" speedFactor="1.04" vaporized=""/>
    <tripinfo id="carIn22761:1" depart="57616.00" departLane="-306240162#1_0" departPos="5.10" departSpeed="0.00" departDelay="2.10" arrival="57756.00" arrivalLane="399835085#1_1" arrivalPos="212.23" arrivalSpeed="6.99" duration="140.00" routeLength="1093.26" waitingTime="36.00" waitingCount="1" stopTime="0.00" timeLoss="54.65" rerouteNo="1" devices="tripinfo_carIn22761:1 routing_carIn22761:1" vType="default_016" speedFactor="0.91" vaporized=""/>
    <tripinfo id="S5R_frequency1.2" depart="57624.00" departLane="315358250#0_1" departPos="12.10" departSpeed="0.00" departDelay="12.40" arrival="57758.00" arrivalLane="386687235_1" arrivalPos="80.84" arrivalSpeed="13.30" duration="134.00" routeLength="1115.62" waitingTime="22.00" waitingCount="3" stopTime="0.00" timeLoss="52.86" rerouteNo="1" devices="tripinfo_S5R_frequency1.2 routing_S5R_frequency1.2" vType="bus" speedFactor="1.00" vaporized=""/>
    <tripinfo id="h330c1:1" depart="57736.00" departLane="-32978638#0_1" departPos="5.10" departSpeed="0.00" departDelay="0.20" arrival="57766.00" arrivalLane="-266565295#5_1" arrivalPos="172.76" arrivalSpeed="15.19" duration="30.00" routeLength="370.53" waitingTime="0.00" waitingCount="0" stopTime="0.00" timeLoss="6.06" rerouteNo="1" devices="tripinfo_h330c1:1 routing_h330c1:1" vType="default_016" speedFactor="1.14" vaporized=""/>
    <tripinfo id="h3326c1:2" depart="57656.00" departLane="22716069#0_1" departPos="5.10" departSpeed="0.00" departDelay="0.00" arrival="57771.00" arrivalLane="24634517#13_1" arrivalPos="111.62" arrivalSpeed="12.76" duration="115.00" routeLength="1312.81" waitingTime="0.00" waitingCount="0" stopTime="0.00" timeLoss="14.06" rerouteNo="1" devices="tripinfo_h3326c1:2 routing_h3326c1:2" vType="default_016" speedFactor="0.97" vaporized=""/>
    <tripinfo id="carIn80064:1" depart="57603.00" departLane="128361109#1_1" departPos="5.10" departSpeed="0.00" departDelay="0.40" arrival="57777.00" arrivalLane="-315358254#1_1" arrivalPos="137.16" arrivalSpeed="13.75" duration="174.00" routeLength="1587.97" waitingTime="52.00" waitingCount="2" stopTime="0.00" timeLoss="84.36" rerouteNo="1" devices="tripinfo_carIn80064:1 routing_carIn80064:1" vType="default_016" speedFactor="0.99" vaporized=""/>
    <tripinfo id="carIn30817:1" depart="57681.00" departLane="315358244_1" departPos="5.10" departSpeed="0.00" departDelay="0.20" arrival="57777.00" arrivalLane="447569997#1_1" arrivalPos="180.93" arrivalSpeed="6.68" duration="96.00" routeLength="718.04" waitingTime="10.00" waitingCount="3" stopTime="0.00" timeLoss="26.73" rerouteNo="1" devices="tripinfo_carIn30817:1 routing_carIn30817:1" vType="default_016" speedFactor="0.89" vaporized=""/>
    <tripinfo id="h16072c2:3" depart="57663.00" departLane="315358254#0_1" departPos="5.10" departSpeed="0.00" departDelay="2.50" arrival="57779.00" arrivalLane="386687235_2" arrivalPos="80.84" arrivalSpeed="15.73" duration="116.00" routeLength="1611.92" waitingTime="1.00" waitingCount="1" stopTime="0.00" timeLoss="15.93" rerouteNo="1" devices="tripinfo_h16072c2:3 routing_h16072c2:3" vType="default_016" speedFactor="1.18" vaporized=""/>
    <tripinfo id="carIn12365:1" depart="57713.00" departLane="315358244_1" departPos="5.10" departSpeed="0.00" departDelay="0.50" arrival="57787.00" arrivalLane="447569997#1_1" arrivalPos="180.93" arrivalSpeed="7.28" duration="74.00" routeLength="718.04" waitingTime="0.00" waitingCount="0" stopTime="0.00" timeLoss="8.60" rerouteNo="1" devices="tripinfo_carIn12365:1 routing_carIn12365:1" vType="default_016" speedFactor="0.94" vaporized=""/>
    <tripinfo id="carIn27009:1" depart="57673.00" departLane="-447569998#1_1" departPos="5.10" departSpeed="0.00" departDelay="0.50" arrival="57792.00" arrivalLane="-26677539_1" arrivalPos="152.75" arrivalSpeed="7.27" duration="119.00" routeLength="699.63" waitingTime="9.00" waitingCount="1" stopTime="0.00" timeLoss="25.04" rerouteNo="1" devices="tripinfo_carIn27009:1 routing_carIn27009:1" vType="default_015" speedFactor="0.89" vaporized=""/>
    <tripinfo id="h645c1:1" depart="57622.00" departLane="266565295#5_1" departPos="5.10" departSpeed="0.00" departDelay="0.40" arrival="57793.00" arrivalLane="-315358244_1" arrivalPos="33.95" arrivalSpeed="13.39" duration="171.00" routeLength="1910.83" waitingTime="13.00" waitingCount="2" stopTime="0.00" timeLoss="33.76" rerouteNo="1" devices="tripinfo_h645c1:1 routing_h645c1:1" vType="default_016" speedFactor="1.01" vaporized=""/>
    <tripinfo id="carIn129809:1" depart="57729.00" departLane="-447569998#1_1" departPos="5.10" departSpeed="0.00" departDelay="1.00" arrival="57805.00" arrivalLane="-315358244_1" arrivalPos="33.95" arrivalSpeed="13.91" duration="76.00" routeLength="706.49" waitingTime="10.00" waitingCount="1" stopTime="0.00" timeLoss="19.28" rerouteNo="1" devices="tripinfo_carIn129809:1 routing_carIn129809:1" vType="default_015" speedFactor="1.07" vaporized=""/>
    <tripinfo id="carIn107282:1" depart="57749.00" departLane="-447569998#1_1" departPos="5.10" departSpeed="0.00" departDelay="0.00" arrival="57815.00" arrivalLane="315358242#0_1" arrivalPos="165.37" arrivalSpeed="13.79" duration="66.00" routeLength="448.50" waitingTime="16.00" waitingCount="1" stopTime="0.00" timeLoss="24.87" rerouteNo="1" devices="tripinfo_carIn107282:1 routing_carIn107282:1" vType="default_016" speedFactor="1.01" vaporized=""/>
    <tripinfo id="h3154c1:1" depart="57658.00" departLane="24634507_1" departPos="5.10" departSpeed="0.00" departDelay="0.00" arrival="57818.00" arrivalLane="-266565295#5_1" arrivalPos="172.76" arrivalSpeed="12.54" duration="160.00" routeLength="1206.22" waitingTime="50.00" waitingCount="1" stopTime="0.00" timeLoss="66.42" rerouteNo="1" devices="tripinfo_h3154c1:1 routing_h3154c1:1" vType="default_016" speedFactor="0.96" vaporized=""/>
    <tripinfo id="randUni15030:1" depart="57735.00" departLane="386687232#0_1" departPos="5.10" departSpeed="0.00" departDelay="0.10" arrival="57826.00" arrivalLane="26677539_1" arrivalPos="151.98" arrivalSpeed="7.57" duration="91.00" routeLength="919.89" waitingTime="0.00" waitingCount="0" stopTime="0.00" timeLoss="11.42" rerouteNo="1" devices="tripinfo_randUni15030:1 routing_randUni15030:1" vType="random_016" speedFactor="1.05" vaporized=""/>
    <tripinfo id="carIn12858:1" depart="57661.00" departLane="128361109#1_1" departPos="5.10" departSpeed="0.00" departDelay="0.90" arrival="57834.00" arrivalLane="399835085#1_1" arrivalPos="212.23" arrivalSpeed="6.50" duration="173.00" routeLength="1738.12" waitingTime="4.00" waitingCount="1" stopTime="0.00" timeLoss="29.51" rerouteNo="1" devices="tripinfo_carIn12858:1 routing_carIn12858:1" vType="default_016" speedFactor="0.81" vaporized=""/>
    <tripinfo id="carIn118591:1" depart="57689.00" departLane="315358244_1" departPos="5.10" departSpeed="0.00" departDelay="0.20" arrival="57834.00" arrivalLane="386687235_1" arrivalPos="80.84" arrivalSpeed="11.69" duration="145.00" routeLength="1186.14" waitingTime="27.00" waitingCount="3" stopTime="0.00" timeLoss="51.30" rerouteNo="1" devices="tripinfo_carIn118591:1 routing_carIn118591:1" vType="default_016" speedFactor="0.93" vaporized=""/>
    <tripinfo id="carIn86816:1" depart="57617.00" departLane="128361102#0_1" departPos="5.10" departSpeed="0.00" departDelay="0.80" arrival="57842.00" arrivalLane="201956811#0_1" arrivalPos="40.40" arrivalSpeed="13.30" duration="225.00" routeLength="2067.33" waitingTime="45.00" waitingCount="3" stopTime="0.00" timeLoss="72.99" rerouteNo="1" devices="tripinfo_carIn86816:1 routing_carIn86816:1" vType="default_016" speedFactor="1.00" vaporized=""/>
    <tripinfo id="carIn102915:1" depart="57643.00" departLane="128361102#0_1" departPos="5.10" departSpeed="0.00" departDelay="0.40" arrival="57843.00" arrivalLane="201956811#0_1" arrivalPos="40.40" arrivalSpeed="13.72" duration="200.00" routeLength="2067.33" waitingTime="19.00" waitingCount="2" stopTime="0.00" timeLoss="50.54" rerouteNo="1" devices="tripinfo_carIn102915:1 routing_carIn102915:1" vType="default_016" speedFactor="1.01" vaporized=""/>
    <tripinfo id="carIn73855:1" depart="57743.00" departLane="386687232#0_1" departPos="5.10" departSpeed="0.00" departDelay="0.50" arrival="57843.00" arrivalLane="-315358244_1" arrivalPos="33.95" arrivalSpeed="14.63" duration="100.00" routeLength="1157.39" waitingTime="3.00" waitingCount="1" stopTime="0.00" timeLoss="19.76" rerouteNo="1" devices="tripinfo_carIn73855:1 routing_carIn73855:1" vType="default_016" speedFactor="1.05" vaporized=""/>
    <tripinfo id="h17600c1:1" depart="57662.00" departLane="272042143_1" departPos="5.10" departSpeed="0.00" departDelay="0.30" arrival="57844.00" arrivalLane="201238729#3_1" arrivalPos="431.02" arrivalSpeed="16.37" duration="182.00" routeLength="2100.26" waitingTime="42.00" waitingCount="1" stopTime="0.00" timeLoss="59.97" rerouteNo="1" devices="tripinfo_h17600c1:1 routing_h17600c1:1" vType="default_016" speedFactor="1.24" vaporized=""/>
    <tripinfo id="h2831c1:1" depart="57600.00" departLane="201089423#0_1" departPos="5.10" departSpeed="0.00" departDelay="0.00" arrival="57846.00" arrivalLane="-315358244_1" arrivalPos="33.95" arrivalSpeed="13.08" duration="246.00" routeLength="2672.18" waitingTime="15.00" waitingCount="3" stopTime="0.00" timeLoss="49.92" rerouteNo="1" devices="tripinfo_h2831c1:1 routing_h2831c1:1" vType="default_016" speedFactor="0.99" vaporized=""/>
    <tripinfo id="randUni33724:1" depart="57646.00" departLane="128361102#0_1" departPos="5.10" departSpeed="0.00" departDelay="1.20" arrival="57847.00" arrivalLane="201956811#0_1" arrivalPos="40.40" arrivalSpeed="12.59" duration="201.00" routeLength="2067.33" waitingTime="11.00" waitingCount="2" stopTime="0.00" timeLoss="47.56" rerouteNo="1" devices="tripinfo_randUni33724:1 routing_randUni33724:1" vType="random_016" speedFactor="0.99" vaporized=""/>
    <tripinfo id="randUni31145:1" depart="57814.00" departLane="10425609#0_1" departPos="5.10" departSpeed="0.00" departDelay="0.30" arrival="57847.00" arrivalLane="201956810_1" arrivalPos="71.65" arrivalSpeed="13.13" duration="33.00" routeLength="255.78" waitingTime="6.00" waitingCount="1" stopTime="0.00" timeLoss="13.64" rerouteNo="1" devices="tripinfo_randUni31145:1 routing_randUni31145:1" vType="random_016" speedFactor="1.02" vaporized=""/>
    <tripinfo id="50R_frequency3.17" depart="57674.00" departLane="-18809673#6_1" departPos="12.10" departSpeed="0.00" departDelay="0.70" arrival="57849.00" arrivalLane="201956811#0_1" arrivalPos="40.40" arrivalSpeed="13.67" duration="175.00" routeLength="1954.47" waitingTime="4.00" waitingCount="1" stopTime="0.00" timeLoss="30.07" rerouteNo="1" devices="tripinfo_50R_frequency3.17 routing_50R_frequency3.17" vType="bus" speedFactor="1.00" vaporized=""/>
    <tripinfo id="h11868c1:5" depart="57700.00" departLane="315358254#0_1" departPos="5.10" departSpeed="0.00" departDelay="0.10" arrival="57850.00" arrivalLane="386687235_1" arrivalPos="80.84" arrivalSpeed="11.39" duration="150.00" routeLength="1611.92" waitingTime="3.00" waitingCount="1" stopTime="0.00" timeLoss="18.92" rerouteNo="1" devices="tripinfo_h11868c1:5 routing_h11868c1:5" vType="default_016" speedFactor="0.90" vaporized=""/>
    <tripinfo id="randUni2407:1" depart="57820.00" departLane="10425609#0_1" departPos="5.10" departSpeed="0.00" departDelay="0.80" arrival="57851.00" arrivalLane="201956810_1" arrivalPos="71.65" arrivalSpeed="11.40" duration="31.00" routeLength="255.78" waitingTime="0.00" waitingCount="0" stopTime="0.00" timeLoss="7.93" rerouteNo="1" devices="tripinfo_randUni2407:1 routing_randUni2407:1" vType="random_016" speedFactor="0.86" vaporized=""/>
    <tripinfo id="carIn50326:1" depart="57651.00" departLane="128361102#0_1" departPos="5.10" departSpeed="0.00" departDelay="0.30" arrival="57860.00" arrivalLane="18809673#0_1" arrivalPos="473.56" arrivalSpeed="11.92" duration="209.00" routeLength="1591.07" waitingTime="44.00" waitingCount="2" stopTime="0.00" timeLoss="72.41" rerouteNo="1" devices="tripinfo_carIn50326:1 routing_carIn50326:1" vType="default_016" speedFactor="0.95" vaporized=""/>
    <tripinfo id="h17549c1:1" depart="57680.00" departLane="-447569998#1_1" departPos="5.10" departSpeed="0.00" departDelay="0.00" arrival="57862.00" arrivalLane="-315358254#1_1" arrivalPos="137.16" arrivalSpeed="15.09" duration="182.00" routeLength="1746.60" waitingTime="39.00" waitingCount="2" stopTime="0.00" timeLoss="60.53" rerouteNo="1" devices="tripinfo_h17549c1:1 routing_h17549c1:1" vType="default_016" speedFactor="1.13" vaporized=""/>
    <tripinfo id="carIn107084:1" depart="57601.00" departLane="124812856#0_1" departPos="5.10" departSpeed="0.00" departDelay="0.70" arrival="57868.00" arrivalLane="-128361102#1_1" arrivalPos="274.68" arrivalSpeed="12.47" duration="267.00" routeLength="2250.49" waitingTime="64.00" waitingCount="1" stopTime="0.00" timeLoss="91.64" rerouteNo="1" devices="tripinfo_carIn107084:1 routing_carIn107084:1" vType="default_016" speedFactor="0.94" vaporized=""/>
    <tripinfo id="h16437c1:3" depart="57717.00" departLane="315358254#0_1" departPos="5.10" departSpeed="0.00" departDelay="0.80" arrival="57869.00" arrivalLane="386687235_2" arrivalPos="80.84" arrivalSpeed="14.19" duration="152.00" routeLength="1611.92" waitingTime="14.00" waitingCount="1" stopTime="0.00" timeLoss="44.74" rerouteNo="1" devices="tripinfo_h16437c1:3 routing_h16437c1:3" vType="default_016" speedFactor="1.10" vaporized=""/>
    <tripinfo id="carIn28951:1" depart="57606.00" departLane="10425609#0_1" departPos="5.10" departSpeed="0.00" departDelay="0.20" arrival="57870.00" arrivalLane="-128361102#1_1" arrivalPos="274.68" arrivalSpeed="14.72" duration="264.00" routeLength="2113.04" waitingTime="71.00" waitingCount="2" stopTime="0.00" timeLoss="118.73" rerouteNo="1" devices="tripinfo_carIn28951:1 routing_carIn28951:1" vType="default_016" speedFactor="1.06" vaporized=""/>
    <tripinfo id="h5216c1:1" depart="57664.00" departLane="224892339#0_1" departPos="5.10" departSpeed="0.00" departDelay="0.00" arrival="57870.00" arrivalLane="386687235_1" arrivalPos="80.84" arrivalSpeed="12.10" duration="206.00" routeLength="1823.78" waitingTime="37.00" waitingCount="2" stopTime="0.00" timeLoss="60.43" rerouteNo="1" devices="tripinfo_h5216c1:1 routing_h5216c1:1" vType="default_016" speedFactor="0.88" vaporized=""/>
    <tripinfo id="carIn85747:1" depart="57673.00" departLane="128361109#1_1" departPos="5.10" departSpeed="0.00" departDelay="0.70" arrival="57871.00" arrivalLane="386687235_2" arrivalPos="80.84" arrivalSpeed="15.70" duration="198.00" routeLength="2088.57" waitingTime="34.00" waitingCount="3" stopTime="0.00" timeLoss="65.07" rerouteNo="1" devices="tripinfo_carIn85747:1 routing_carIn85747:1" vType="default_016" speedFactor="1.14" vaporized=""/>
    <tripinfo id="carIn77943:1" depart="57608.00" departLane="124812856#0_1" departPos="5.10" departSpeed="0.00" departDelay="2.50" arrival="57872.00" arrivalLane="-128361102#1_1" arrivalPos="274.68" arrivalSpeed="12.34" duration="264.00" routeLength="2250.49" waitingTime="46.00" waitingCount="3" stopTime="0.00" timeLoss="88.49" rerouteNo="1" devices="tripinfo_carIn77943:1 routing_carIn77943:1" vType="default_016" speedFactor="0.94" vaporized=""/>
    <tripinfo id="carIn48184:1" depart="57613.00" departLane="-306240162#1_0" departPos="5.10" departSpeed="0.00" departDelay="0.70" arrival="57872.00" arrivalLane="386687235_1" arrivalPos="80.84" arrivalSpeed="11.88" duration="259.00" routeLength="2257.41" waitingTime="59.00" waitingCount="3" stopTime="0.00" timeLoss="90.64" rerouteNo="1" devices="tripinfo_carIn48184:1 routing_carIn48184:1" vType="default_016" speedFactor="0.89" vaporized=""/>
    <tripinfo id="carIn75660:1" depart="57679.00" departLane="128361109#1_1" departPos="5.10" departSpeed="0.00" departDelay="3.40" arrival="57873.00" arrivalLane="386687235_2" arrivalPos="80.84" arrivalSpeed="13.61" duration="194.00" routeLength="2088.57" waitingTime="20.00" waitingCount="2" stopTime="0.00" timeLoss="50.68" rerouteNo="1" devices="tripinfo_carIn75660:1 routing_carIn75660:1" vType="default_016" speedFactor="1.05" vaporized=""/>
    <tripinfo id="carIn126378:1" depart="57746.00" departLane="386687232#0_1" departPos="5.10" departSpeed="0.00" departDelay="1.80" arrival="57873.00" arrivalLane="-315358244_2" arrivalPos="33.95" arrivalSpeed="13.63" duration="127.00" routeLength="1157.39" waitingTime="17.00" waitingCount="4" stopTime="0.00" timeLoss="43.18" rerouteNo="1" devices="tripinfo_carIn126378:1 routing_carIn126378:1" vType="default_016" speedFactor="1.01" vaporized=""/>
    <tripinfo id="carIn7949:1" depart="57676.00" departLane="128361109#1_1" departPos="5.10" departSpeed="0.00" departDelay="2.10" arrival="57874.00" arrivalLane="386687235_1" arrivalPos="80.84" arrivalSpeed="14.61" duration="198.00" routeLength="2088.57" waitingTime="28.00" waitingCount="3" stopTime="0.00" timeLoss="58.97" rerouteNo="1" devices="tripinfo_carIn7949:1 routing_carIn7949:1" vType="default_016" speedFactor="1.09" vaporized=""/>
    <tripinfo id="carIn8642:1" depart="57774.00" departLane="-447569998#1_1" departPos="5.10" departSpeed="0.00" departDelay="0.90" arrival="57874.00" arrivalLane="-315358244_1" arrivalPos="33.95" arrivalSpeed="13.00" duration="100.00" routeLength="706.49" waitingTime="20.00" waitingCount="2" stopTime="0.00" timeLoss="36.52" rerouteNo="1" devices="tripinfo_carIn8642:1 routing_carIn8642:1" vType="default_016" speedFactor="0.95" vaporized=""/>
    <tripinfo id="h19413c1:1" depart="57685.00" departLane="128361109#1_1" departPos="5.10" departSpeed="0.00" departDelay="5.90" arrival="57876.00" arrivalLane="386687235_1" arrivalPos="80.84" arrivalSpeed="11.72" duration="191.00" routeLength="2088.57" waitingTime="9.00" waitingCount="1" stopTime="0.00" timeLoss="29.11" rerouteNo="1" devices="tripinfo_h19413c1:1 routing_h19413c1:1" vType="default_016" speedFactor="0.93" vaporized=""/>
    <tripinfo id="carIn88905:1" depart="57688.00" departLane="128361109#1_1" departPos="5.10" departSpeed="0.00" departDelay="5.80" arrival="57876.00" arrivalLane="386687235_2" arrivalPos="80.84" arrivalSpeed="11.93" duration="188.00" routeLength="2088.57" waitingTime="7.00" waitingCount="1" stopTime="0.00" timeLoss="28.45" rerouteNo="1" devices="tripinfo_carIn88905:1 routing_carIn88905:1" vType="default_016" speedFactor="0.95" vaporized=""/>
    <tripinfo id="h8343c1:5" depart="57679.00" departLane="315358254#0_1" departPos="5.10" departSpeed="0.00" departDelay="0.60" arrival="57881.00" arrivalLane="-24634510#5_1" arrivalPos="236.88" arrivalSpeed="13.89" duration="202.00" routeLength="2056.84" waitingTime="45.00" waitingCount="3" stopTime="0.00" timeLoss="81.93" rerouteNo="1" devices="tripinfo_h8343c1:5 routing_h8343c1:5" vType="default_016" speedFactor="1.04" vaporized=""/>
    <tripinfo id="h825c2:3" depart="57690.00" departLane="315358254#0_1" departPos="5.10" departSpeed="0.00" departDelay="0.50" arrival="57885.00" arrivalLane="32978638#0_1" arrivalPos="49.29" arrivalSpeed="12.74" duration="195.00" routeLength="2207.01" waitingTime="12.00" waitingCount="2" stopTime="0.00" timeLoss="33.55" rerouteNo="1" devices="tripinfo_h825c2:3 routing_h825c2:3" vType="default_016" speedFactor="1.00" vaporized=""/>
    <tripinfo id="h9953c2:3" depart="57682.00" departLane="-54169231#2_1" departPos="5.10" departSpeed="0.00" departDelay="0.00" arrival="57888.00" arrivalLane="386687235_1" arrivalPos="80.84" arrivalSpeed="12.85" duration="206.00" routeLength="1535.60" waitingTime="51.00" waitingCount="2" stopTime="0.00" timeLoss="75.63" rerouteNo="1" devices="tripinfo_h9953c2:3 routing_h9953c2:3" vType="default_016" speedFactor="0.96" vaporized=""/>
    <tripinfo id="carIn82278:1" depart="57702.00" departLane="-306240162#1_0" departPos="5.10" departSpeed="0.00" departDelay="0.70" arrival="57890.00" arrivalLane="399835085#1_1" arrivalPos="212.23" arrivalSpeed="6.92" duration="188.00" routeLength="1093.26" waitingTime="52.00" waitingCount="4" stopTime="0.00" timeLoss="99.47" rerouteNo="1" devices="tripinfo_carIn82278:1 routing_carIn82278:1" vType="default_016" speedFactor="0.88" vaporized=""/>
    <tripinfo id="carIn70533:1" depart="57812.00" departLane="-447569998#1_1" departPos="5.10" departSpeed="0.00" departDelay="0.10" arrival="57890.00" arrivalLane="-315358244_1" arrivalPos="33.95" arrivalSpeed="11.46" duration="78.00" routeLength="706.49" waitingTime="0.00" waitingCount="0" stopTime="0.00" timeLoss="8.56" rerouteNo="1" devices="tripinfo_carIn70533:1 routing_carIn70533:1" vType="default_016" speedFactor="0.87" vaporized=""/>
    <tripinfo id="h3536c1:1" depart="57767.00" departLane="-24634413#2_1" departPos="5.10" departSpeed="0.00" departDelay="0.00" arrival="57891.00" arrivalLane="32978638#0_1" arrivalPos="49.29" arrivalSpeed="13.85" duration="124.00" routeLength="953.61" waitingTime="19.00" waitingCount="1" stopTime="0.00" timeLoss="38.13" rerouteNo="1" devices="tripinfo_h3536c1:1 routing_h3536c1:1" vType="default_016" speedFactor="1.05" vaporized=""/>
    <tripinfo id="h17890c1:3" depart="57792.00" departLane="386687232#0_1" departPos="5.10" departSpeed="0.00" departDelay="0.00" arrival="57893.00" arrivalLane="32978638#0_1" arrivalPos="49.29" arrivalSpeed="14.90" duration="101.00" routeLength="792.72" waitingTime="21.00" waitingCount="3" stopTime="0.00" timeLoss="46.65" rerouteNo="1" devices="tripinfo_h17890c1:3 routing_h17890c1:3" vType="default_016" speedFactor="1.09" vaporized=""/>
    <tripinfo id="carIn53503:1" depart="57765.00" departLane="-306240162#1_0" departPos="5.10" departSpeed="0.00" departDelay="4.40" arrival="57895.00" arrivalLane="24634510#6_1" arrivalPos="76.64" arrivalSpeed="13.44" duration="130.00" routeLength="1440.47" waitingTime="4.00" waitingCount="1" stopTime="0.00" timeLoss="28.00" rerouteNo="1" devices="tripinfo_carIn53503:1 routing_carIn53503:1" vType="default_016" speedFactor="0.98" vaporized=""/>
    <tripinfo id="carIn46110:1" depart="57684.00" departLane="315358244_1" departPos="5.10" departSpeed="0.00" departDelay="1.20" arrival="57898.00" arrivalLane="32978638#0_1" arrivalPos="49.29" arrivalSpeed="12.03" duration="214.00" routeLength="1764.04" waitingTime="45.00" waitingCount="4" stopTime="0.00" timeLoss="72.64" rerouteNo="1" devices="tripinfo_carIn46110:1 routing_carIn46110:1" vType="default_016" speedFactor="0.91" vaporized=""/>
    <tripinfo id="h5938c1:1" depart="57740.00" departLane="-26677542#0_1" departPos="5.10" departSpeed="0.00" departDelay="0.00" arrival="57898.00" arrivalLane="447569997#1_1" arrivalPos="180.93" arrivalSpeed="7.25" duration="158.00" routeLength="1093.64" waitingTime="26.00" waitingCount="3" stopTime="0.00" timeLoss="47.33" rerouteNo="1" devices="tripinfo_h5938c1:1 routing_h5938c1:1" vType="default_016" speedFactor="0.88" vaporized=""/>